id,tc,pretty_formula
mp-1006613,19.163315,Na2Al2(SiO4)3
mp-1006878,44.13669,BaO2
mp-1009009,17.13245,LiF
mp-10103,16.229116,LiYbAlF6
mp-1016119,15.29215,NaMnO2
mp-1016821,20.53115,BaSiO3
mp-1016850,33.197212,BaRhO3
mp-1016852,29.624325,BaMnO3
mp-1017465,16.629845,BaVO3
mp-1017555,19.64574,CsBeF3
mp-1017626,17.200027,LiCaF3
mp-1018700,24.359447,EuO2
mp-1018789,28.677048,LiO2
mp-1021328,25.605602,H4C
mp-1023127,29.799856,Ba4Cu3PbO9
mp-10250,20.619072,BaLiF3
mp-1025237,39.14558,Ba2RuO4
mp-1025265,17.337835,Cs2CuF4
mp-1025338,24.044043,Tl2CuF4
mp-1025456,15.940839,CaZrF6
mp-1025460,17.805862,MgZrF6
mp-1025493,17.696815,HoClO2
mp-1025509,15.388321,ZrZnF6
mp-1029,18.448044,BaF2
mp-1030980,15.125399,RbNaMg6O7
mp-1033557,15.06949,RbMg6BO8
mp-1033624,16.800726,RbMg6BO7
mp-1033632,17.26333,RbMg6BO7
mp-1042137,28.680779,BaYCuSnO5
mp-1042151,27.175133,BaYCuSbO5
mp-1042153,27.9464,BaYCuAgO5
mp-1042162,66.51557,BaYCu2O5
mp-1042181,31.5208,BaAlCuAgO5
mp-1042186,37.953674,BaAlCu2O5
mp-1042199,17.518616,BaAlCuSnO5
mp-1042208,16.382006,BaTaCuO5
mp-1042217,31.225838,BaCuSbO5
mp-1042435,64.53651,Ba2AlCu3O8
mp-1042471,28.25848,BaYCoCuO5
mp-1042475,43.12684,BaYCrCuO5
mp-1042478,49.199905,BaAlCuNiO5
mp-1042497,17.254261,BaAlCrCuO5
mp-1042500,17.029333,BaYCuMoO5
mp-1042504,22.951794,BaAlCuMoO5
mp-1042519,28.50939,BaAlCuWO5
mp-1044042,19.554176,CaSn3O7
mp-1044976,24.090778,BaAlCuWO5
mp-1045008,21.980705,Ba2AlW3O7
mp-1045459,16.88571,Ba2CaCu3F14
mp-1045463,15.480018,Ba2MgCu3F14
mp-1045620,16.929668,Ba2ZnCu3F14
mp-1045817,17.385275,Ba2CuMo2F14
mp-1045850,21.93909,Ba2CaMn2CuF14
mp-1045867,18.781815,Ba2Mn2ZnCuF14
mp-1045910,18.795567,Ba2MgMn2CuF14
mp-1045996,33.56427,Ba2TlSb2O7
mp-1046001,48.459908,Ba2AlTlCu2O7
mp-1046030,18.312233,Ba2Ti2TlO7
mp-1046035,24.847404,Sr2AlTlV2O7
mp-1046038,23.99498,Sr2YTlV2O7
mp-1046053,30.56235,Ba2TlSn2O7
mp-1046056,41.52417,Ba2TlBi2O7
mp-1046109,29.402967,Ba2Ca2Ti3Tl2O10
mp-1046126,55.40548,Ba2Mg2Tl2Cu3O10
mp-1046128,56.46592,Ba2Tl2Sb3O10
mp-1046130,66.199295,Ba2Tl2Zn2Cu3O10
mp-1046139,17.389416,Ba2Mg2Ti3Tl2O10
mp-1046194,16.901497,Ba2Tl2Zn2Sn3O10
mp-1046198,27.369022,Ba2Mg2Tl2Sn3O10
mp-1046253,54.491142,Ba2Tl2Bi3O10
mp-1046267,20.011347,Ba2Ti3Tl2Zn2O10
mp-1046312,22.7486,Ba2Ti3Tl2O10
mp-1046323,55.20112,Ba2Tl2Sn3O10
mp-1046342,51.98564,Ba2TlFe2O7
mp-1046344,40.86927,Ba2Mg3Tl2(CoO3)4
mp-1046345,15.998335,Ba2YTlCr2O7
mp-1046346,58.908318,Ba2TlCo2O7
mp-1046349,21.365078,Ba2AlTlFe2O7
mp-1046350,28.080078,Ba2TlW2O7
mp-1046351,16.401892,Ba2YTlFe2O7
mp-1046359,51.789024,Ba2TlV2O7
mp-1046386,21.247118,Ba2YTlW2O7
mp-1046397,25.837093,Ba2YTlNi2O7
mp-10464,15.471573,CaF2
mp-1046436,28.354813,Ba2AlTlV2O7
mp-1046464,53.025604,BaMn2TlO6
mp-1046474,77.70465,Ba2Ca2Tl2Co3O10
mp-1046475,63.13002,Ba2Ca2Tl2Fe3O10
mp-1046491,42.60338,Ba2Mg2Tl2Co3O10
mp-1046494,66.86781,Ba2Ca2Mn3Tl2O10
mp-1046498,33.263885,Ba2Mg2Mn3Tl2O10
mp-1046499,28.709278,Ba2Mg2Tl2W3O10
mp-1046501,66.595245,Ba2Tl2Co3O10
mp-1046503,71.94193,Ba2Ca2Tl2Cr3O10
mp-1046507,57.09195,Ba2Tl2Zn2Co3O10
mp-1046512,93.80835,Ba2Ca2Tl2Ni3O10
mp-1046513,46.916847,Ba2Mn3Tl2Zn2O10
mp-1046522,52.029083,Ba2Mg2Tl2Ni3O10
mp-1046524,45.63286,Ba2Tl2Zn2Fe3O10
mp-1046536,73.28458,Ba2Tl2Cr3O10
mp-1046545,49.18566,Ba2Tl2Zn2Ni3O10
mp-1046553,41.585712,Ba2Mg2Tl2Fe3O10
mp-1046558,33.399216,Ba2Ca2Tl2W3O10
mp-1046567,33.37903,Ba2Tl2Mo3O10
mp-1046571,56.803497,Ba2Tl2Fe3O10
mp-1046584,30.02938,Ba2Tl2W3O10
mp-1046591,61.759827,Ba2Tl2Ni3O10
mp-1046610,40.647118,Ba2Tl2Zn2Cr3O10
mp-1046815,41.981506,BaTl(CoO3)2
mp-1046932,54.34984,BaTl(NiO3)2
mp-1046939,28.872377,BaTl(WO3)2
mp-1047046,28.06456,BaTl(MoO3)2
mp-1047142,18.765121,Ca2NiIrO6
mp-10474,15.578565,NaPF6
mp-1047440,25.055983,Ca2YVO5
mp-1047494,16.39493,Ca2YMnO5
mp-1047496,38.417614,Ca2YCoO5
mp-1047527,20.484194,Ca2YFeO5
mp-1047556,34.670067,Ca2YNiO5
mp-1047595,30.795847,Ba2Mg3Mn4Tl2O12
mp-1047601,27.588474,Zn(CuO2)2
mp-1047649,52.133442,Ca(CuO2)2
mp-1047650,21.238808,Zn(MoO2)2
mp-1047722,18.909328,Zn(WO2)2
mp-1047819,24.109896,Ba2Ca3Ti4Tl2O12
mp-1047848,15.5803585,BaMgMoF7
mp-1047851,16.152779,Ba2Ti4Tl2Zn3O12
mp-1047862,15.539934,BaMgMnF7
mp-1047929,15.25069,BaCaMoF7
mp-1047948,20.713877,BaCaMnF7
mp-1047971,15.468439,BaCaNiF7
mp-1048012,25.474943,Ba2Ca3Tl2(SnO3)4
mp-1048032,51.37712,BaTl(SbO3)2
mp-1048073,62.566055,Ba2AlCu3O7
mp-1048083,42.92045,BaTl(SnO3)2
mp-1048100,53.391033,BaTl(BiO3)2
mp-1048103,21.686535,Ba2Mn3AlO8
mp-1048114,20.314928,BaCrF7
mp-1048124,28.245762,Ba2Cr3O8
mp-1048148,16.13576,Al2(CuO2)3
mp-1048153,24.34277,Ba2AlFe3O8
mp-1048162,26.749271,Ba2AlV3O8
mp-1048172,30.69096,Ba2Mn3O8
mp-1048180,35.912537,Ba2AlCo3O8
mp-1048188,26.553312,Ba2Sn3O7
mp-1048224,23.757315,Ba2AlNi3O8
mp-1048316,16.429817,Ba2YCo3O7
mp-1048319,33.27643,Ba2Mn3AlO7
mp-1048321,23.540188,Ba2YMn3O7
mp-1048330,26.442064,Ba2AlCr3O7
mp-1048339,67.407845,Ba2Tl2Zn3(CoO3)4
mp-1048346,41.495247,Ba2AlV3O7
mp-1048352,93.42312,Ba2Ca3Tl2(NiO3)4
mp-1048370,27.144402,Ba2AlW3O7
mp-1048379,29.706295,Ba2YV3O7
mp-1048426,17.676895,Ba2YNi3O7
mp-1048433,42.62937,Ba2AlTlNi2O7
mp-1048438,25.116402,Ba2AlTlCr2O7
mp-1048444,29.943182,Ba2TlMo2O7
mp-1048447,23.41988,Ba2YMn2TlO7
mp-1048457,25.000061,Ba2Mn2AlTlO7
mp-1048461,59.139294,Ba2Mn2TlO7
mp-1048468,20.54974,Ba2YW3O7
mp-1048483,34.923462,Ba2AlNi3O7
mp-1048495,30.883484,Ba2Fe3O7
mp-1048496,42.850548,Ba2Co3O7
mp-1048501,37.444626,Ba2W3O7
mp-1048510,33.15764,Ba2Mo3O7
mp-1048511,42.520035,Ba2Mn3O7
mp-1048539,55.63694,Ba2Cr3O7
mp-1048549,69.539024,Ba2Ca3Mn4Tl2O12
mp-1048554,32.75339,Ba2Ni3O7
mp-1048574,35.081806,Ba2Mn4Tl2Zn3O12
mp-1048584,52.518105,Ba2Tl2Zn3(FeO3)4
mp-1048597,16.84584,ZnCr2O5
mp-1048633,42.6659,Ba2Ca3Tl2V4O12
mp-1059242,20.930729,ClO
mp-1062842,16.658678,MgF2
mp-1066989,17.830149,H2
mp-1068300,23.092781,Ca(FeAs)2
mp-10694,15.096068,ScF3
mp-1069855,15.29727,Co(ClO)2
mp-1072956,20.33555,MgF2
mp-1075902,17.946136,EuCuO3
mp-1076118,39.28685,Sr6Ca2Co7CuO20
mp-1076139,15.956209,Ca7MgFeCo7O24
mp-1076147,31.52496,Sr2Ca2Fe3CoO10
mp-1076163,30.488731,Sr4Ca4Mn7FeO20
mp-1076175,68.59133,Sr4Ca4Co7CuO20
mp-1076184,44.8696,SrCa3Mn4O10
mp-1076189,24.97057,Ba3Sr(Cu2O5)2
mp-1076190,19.035963,Sr4Ca4Mn5Fe3O20
mp-1076197,27.447262,Sr2Ca2Mn3FeO10
mp-1076198,86.08932,Sr2Ca6Fe3(CoO4)5
mp-1076207,39.690765,Ca7MgTiMn7O20
mp-1076223,21.163895,Eu2Ni2O5
mp-1076273,71.62028,Sr2Ca2Co3CuO10
mp-1076428,40.259136,Sr5Ca3Fe4(CoO5)4
mp-1076439,32.00904,Ba2Co2O5
mp-1076449,58.71216,SrCa7Mn7FeO20
mp-1076450,22.94255,Sr3Ca5Mn4(FeO5)4
mp-1076470,99.15076,Sr2Ca6Co7CuO20
mp-1076479,74.938675,Sr3Ca5FeCo7O20
mp-1076482,23.074615,Sr3Ca5Mn3(FeO4)5
mp-1076488,29.1934,Sr6Ca2Fe3(CoO4)5
mp-1076496,27.39875,SrCaMn2O5
mp-1076502,55.516315,Sr4Ca4Fe3(CoO4)5
mp-1076526,89.07477,Ca7Mg(Co2O5)4
mp-1076601,16.831131,Sr5Ca3Mn6(FeO10)2
mp-1076614,59.394264,Sr3Ca5Fe5Co3O20
mp-1076630,19.702547,KNa7V8O20
mp-1076675,91.14375,SrCa3(Co2O5)2
mp-1076678,43.739372,Sr6Ca2Co5Cu3O20
mp-1076750,36.950974,Sr3Ca5Mn7FeO20
mp-1076769,18.390968,Sr6Ca2Fe5Co3O20
mp-1076776,23.062138,SrCa3TiMn3O10
mp-1076800,66.352165,BaCuO3
mp-1076821,17.877869,KNa7V7CrO20
mp-1076862,44.37399,Sr2Ca6Mn5Fe3O20
mp-1076877,34.837425,Sr2Ca6TiMn7O20
mp-1076897,49.84924,Ca7MgMn8O20
mp-1077164,15.950096,LiTi(SO)2
mp-1077688,44.204376,SrCa7TiMn7O20
mp-1077691,57.265793,SrCa7Mn6(FeO10)2
mp-1077695,24.60556,Sr3Ca5TiMn7O20
mp-1078018,28.387835,La(ClO)3
mp-1078081,21.515299,K2CuF4
mp-1078205,15.578617,KRb2InF6
mp-1078233,17.10187,H3CCl
mp-1078300,16.490948,ScF3
mp-1078510,21.921167,
mp-1078615,15.2222395,Mg(ClO3)2
mp-1078758,17.1848,Sr2NiRuO6
mp-1078912,15.052096,Sr2HfFeO6
mp-1078941,51.081,Ba2NO6
mp-1079073,22.527622,Pb2CO6
mp-1079088,16.080212,NaAsF6
mp-1079272,18.101496,Sr2ZrVO6
mp-1079339,15.5599785,K2NaMnF6
mp-1079447,18.63242,Ni(ClO)2
mp-1079516,16.155924,Cu(ClO)2
mp-1079577,17.347834,Ni(ClO3)2
mp-1080550,34.380634,KO2F
mp-1080679,16.839048,LiTaF6
mp-1080821,16.317238,
mp-1080828,37.344307,KCuF3
mp-1091363,18.513031,K2TcF6
mp-1094067,15.08149,ScF3
mp-1095079,16.193375,K3AlF6
mp-1095170,17.090973,Sr2FeOsO6
mp-1095258,18.156807,SrMgF4
mp-1095586,15.731544,LiGaH4
mp-1096779,34.908085,Ba4Ce(CuO3)3
mp-1096936,18.852627,CsO2
mp-1096977,15.17454,H2
mp-1097008,19.78528,K2O2
mp-1097775,70.93061,Ba2Cu2O5
mp-1097884,18.137653,BeF2
mp-1097890,27.477114,Eu2Ni2O5
mp-1098107,15.428953,CsNaMg6O7
mp-1099221,16.961779,CsMg6BO7
mp-1099263,19.519077,CsMg6BO8
mp-1099653,89.59021,Sr2Ca6FeCo7O20
mp-1099665,58.30297,Sr2Ca2FeCo3O10
mp-1099669,25.393833,KNa7V7MoO20
mp-1099672,22.160473,Sr5Ca3Mn7FeO20
mp-1099678,38.46622,Sr3CaCo3CuO10
mp-1099694,64.525444,SrCaCo2O5
mp-1099708,67.226,Sr3Ca5Fe4(CoO5)4
mp-1099745,96.73576,SrCa7Fe2(Co3O10)2
mp-1099765,30.392258,Eu2Cu2O5
mp-1099795,25.20452,Ba7Sr(Cu2O5)4
mp-1099798,42.445488,Sr5Ca3Fe2(Co3O10)2
mp-1099799,16.858536,Sr4Ca4TiMn7O20
mp-1099810,47.194584,Sr2Ca6Mn7FeO20
mp-1099816,46.50594,Sr5Ca3FeCo7O20
mp-1099831,53.34738,Ca7MgMn7FeO20
mp-1099847,101.32796,SrCa7FeCo7O20
mp-1099873,22.463165,CaCuO3
mp-1099904,28.047785,Ba2Mn2O5
mp-1099907,93.15779,Ca7MgFeCo7O20
mp-1099952,100.46994,Ca7MgCo7CuO20
mp-1099956,21.757875,KNa7V6(MoO10)2
mp-1100009,61.25375,Sr4Ca4FeCo7O20
mp-1101007,15.318367,Tl5NO5
mp-1101095,16.626202,Cs2MnOF5
mp-1101250,15.925651,TlInO2
mp-1101631,15.344763,AgClO2
mp-1101675,16.255047,NiPtO2
mp-11019,33.004337,GaCuO2
mp-1101987,16.414148,
mp-1102083,17.805172,BaMgF4
mp-1102911,17.000988,SrF2
mp-1103295,16.338285,AlF3
mp-1103527,15.103035,BaBClF4
mp-1103574,18.24462,NaIO4
mp-1104135,15.78584,CaH2F4
mp-1104383,17.739101,
mp-1104549,16.445183,Na2Re(ClO)6
mp-1104925,17.71241,KAlCr2O10
mp-1105,59.035156,BaO2
mp-1105341,18.642696,Na2Pt(ClO)6
mp-1105354,30.872417,Ca2FeCuSO3
mp-1105430,24.611782,Mg(CO3)2
mp-1105435,17.077988,CaFe5As3
mp-1105485,26.890123,Ca2Cr2O5
mp-1105595,15.346135,Zn2SiO5
mp-1106035,30.001518,CaSO6
mp-1106083,20.871727,SrMnOF5
mp-1106089,15.393638,Ba2InGaO5
mp-1106119,16.41981,
mp-1106172,16.797626,BH5NCl
mp-1106197,23.045122,K2MoO2F5
mp-1106386,15.504674,BH6N
mp-1106402,17.762367,Rb2TiOF5
mp-111,27.77885,Ne
mp-1110646,16.387018,Rb2NaNdF6
mp-1110649,17.073662,Rb2LiYF6
mp-1110651,15.291193,Rb2LiSbF6
mp-1110652,16.91238,Rb2LiPrF6
mp-1110653,17.312618,Rb2LiNdF6
mp-1110656,16.444002,Rb2LiBiF6
mp-1110663,16.191408,Rb2NaPrF6
mp-1110829,15.516966,K2NaSbF6
mp-1110830,16.235577,K2NaPrF6
mp-1110831,16.337437,K2NaNdF6
mp-1110833,16.344902,K2NaBiF6
mp-1110834,18.55914,K2LiYF6
mp-1110835,16.47257,K2LiSbF6
mp-1110836,17.908726,K2LiNdF6
mp-1110838,17.012913,K2LiBiF6
mp-1110969,17.862867,Cs2LiYF6
mp-1110971,16.854965,Cs2LiSbF6
mp-1110972,17.705849,Cs2LiPrF6
mp-1110973,18.221004,Cs2LiNdF6
mp-1110976,17.287325,Cs2LiBiF6
mp-1110979,16.47599,Cs2NaSbF6
mp-1110980,17.141468,Cs2NaPrF6
mp-1110981,17.491814,Cs2NaNdF6
mp-1110984,15.646342,Cs2KTaF6
mp-1111020,15.4170685,Cs2KSbF6
mp-1111021,15.349771,Cs2KPrF6
mp-1111079,16.62185,K3ScF6
mp-1111106,16.418451,K2NaGaF6
mp-1111108,16.067356,K2NaAsF6
mp-1111110,20.41776,K2LiScF6
mp-1111150,15.402667,K2LiCoF6
mp-1111658,15.079653,K2LiTlF6
mp-1111671,17.301762,K2LiInF6
mp-1111963,16.466465,Cs2RbScF6
mp-11174,19.705976,K2IrF6
mp-1120790,19.173443,Na2VF5
mp-1120791,17.61456,NaCuO2
mp-11347,17.274853,TbF3
mp-1138,21.424791,LiF
mp-1147544,83.17976,Ba2TlCu3O7
mp-1147653,27.348589,CaCu3O4
mp-1147655,34.828674,Ba4Cu3SnO9
mp-1147660,18.826218,Cu3AsF12
mp-1147676,25.06395,BaAuO2
mp-1147699,31.597967,Ba4Ti(CuO3)3
mp-1147749,18.7044,CaNiO2
mp-1147752,16.038269,KLa(CuO2)2
mp-1147754,28.234463,K3Cu2H7
mp-1147762,52.022186,Ba2CuO4
mp-1147775,48.74229,Ba2OsO4
mp-1147780,16.866066,K2CuH4
mp-1167,22.017155,CF4
mp-1173231,42.549377,Sr4CaYCo2(Cu2O7)2
mp-1173287,28.947502,Sr2Ca2Cu3BiO8
mp-1173344,26.435394,Rb4N2O7
mp-1173458,21.515762,Rb5NO5
mp-1173599,16.69575,Rb2SeO4
mp-1173720,15.75035,NaHo2F7
mp-1173730,16.268414,Na2SO4
mp-1173889,16.016174,Li2CoO3
mp-1173890,16.156452,Li2CoO3
mp-1173894,15.547308,Li2CoO3
mp-1176534,16.310495,LiVF4
mp-1176629,20.310787,LiMnF4
mp-1176639,16.623531,LiMnF4
mp-1176654,20.069439,LiMnF4
mp-1177431,18.802973,Li4Fe3(NiO4)3
mp-1178143,16.090843,K2Zn2O3
mp-1178384,22.952597,Eu2NiO4
mp-1178388,27.64227,CsTlO2
mp-1178416,19.958454,CrO
mp-1178510,29.271133,BaPdO3
mp-1178520,25.91243,CaEu4O5
mp-1178535,21.938091,Ba3Y2O6
mp-1178568,20.918446,
mp-1178632,17.17811,ZnSeO5
mp-1178719,17.737547,Zn(OF)2
mp-1178724,23.074408,Zn4P2O13
mp-1178781,20.900116,Zn2P3O16
mp-1178868,15.020682,V(ClO2)3
mp-1179015,20.472206,SrZnO5
mp-1179154,45.200867,TlO
mp-1179184,20.294773,TlBrO3
mp-1179220,20.28327,
mp-1179241,15.034119,
mp-1179400,17.087376,
mp-1179419,15.44125,
mp-1179438,15.776125,SnAs2O9
mp-1179540,15.118141,ScBr3O7
mp-1179695,16.099792,SrBiBr5O8
mp-1179765,16.780352,RbZn2P3O14
mp-1179886,16.206707,NaHF2
mp-1180162,29.114557,Ni(ClO3)2
mp-1180192,20.494217,NaAsO6
mp-1180205,18.922886,
mp-1180213,15.278283,NaBrO3
mp-1180275,18.311232,Na2SnO6
mp-1180278,18.36076,NaClO3
mp-1180350,15.496017,MgSi(OF)6
mp-1180363,18.08855,NaPO4
mp-1180407,21.49787,Mg(BrO3)2
mp-1180419,16.915234,NaAgI2O3
mp-1180445,18.927742,Na2TeO5
mp-1180492,19.88668,Na2B5O11
mp-1180514,19.06388,LiTi(SO)2
mp-1180517,17.32884,MgSO9
mp-1180549,15.270918,
mp-1180580,19.940815,LiHF2
mp-1180640,17.357159,NaZn2P3O19
mp-1180695,17.142542,Rb3VO8
mp-1180711,45.988163,KO2
mp-1180742,45.637077,KO2
mp-1180869,23.99357,KMg(CO5)2
mp-1180950,15.918974,K2TlCl5O2
mp-1180977,15.4414425,K2Os(NO5)2
mp-1180993,20.713243,KCaAsO12
mp-1181027,15.558191,HgO2
mp-1181028,16.707369,K3Al3Si3O16
mp-1181057,18.22389,
mp-1181144,17.97548,K2PtO6
mp-1181167,27.883392,Na2B4O11
mp-1181193,20.541424,KCa4Si8O28F
mp-1181272,25.61169,InO3
mp-1181274,15.503081,K2Al2(SiO4)3
mp-1181303,17.174755,FeSb(ClO)8
mp-1181342,21.636694,Ga2O3
mp-1181359,19.650108,MgCd2(ClO2)6
mp-1181380,27.863499,K2PbO6
mp-1181405,32.952553,K2SnO6
mp-1181502,16.070206,CsO2
mp-1181674,20.854803,K2Zn4P4O21
mp-1181968,15.47503,NaBeSi3O8
mp-1181992,19.409061,CaZn2(PO5)2
mp-1182005,15.203395,CaFeClO2
mp-1182012,17.462236,CaPBrO8
mp-1182035,18.42917,CaZn2(PO5)2
mp-1182043,25.585846,Cd(PO5)2
mp-1182068,37.028828,Ca3CoO6
mp-1182073,25.554317,Na4P2NO16
mp-1182082,16.53745,CaAl(OF2)2
mp-1182120,17.3298,BrO3
mp-1182141,27.756502,BaO2
mp-1182149,19.020277,
mp-1182169,17.742767,BaO6
mp-1182221,24.699278,Cr2Cu3(OF)12
mp-1182238,45.699722,BaO2
mp-1182259,48.46096,BaO2
mp-1182262,29.483452,Cd(ClO2)2
mp-1182282,21.670494,Cr2Cu3(OF)12
mp-1182293,16.582087,BrO4
mp-1182309,18.283585,Ca(BO5)2
mp-1182337,17.321917,BaClO3
mp-1182377,51.38363,Ba2CuO6
mp-1182380,15.156587,
mp-1182493,16.829262,CaVSi4O15
mp-1182494,16.159508,BeCuO5F4
mp-1182536,17.22493,Ca3As2O19
mp-1182550,34.86704,Ba2ZnO6
mp-1182559,15.63989,BaCu(C2O7)2
mp-1182569,26.832436,Ba2Ca3Tl2(CuO3)4
mp-1182615,21.477314,Ca3MnS2O17
mp-1182663,25.972046,Ba2Zn(HO)6
mp-1182697,18.785292,BaZnO5
mp-1182704,20.031048,CaZn2(PO5)2
mp-1182834,17.673546,Cd2Ni(ClO2)6
mp-1182902,17.810703,AlF3
mp-1183007,17.543102,AlF3
mp-1183009,18.462626,Al(ClO2)3
mp-1183282,19.003042,BaBeO3
mp-1183284,28.51919,BaLiO3
mp-1183285,21.445446,BaCaO3
mp-1183288,18.008598,BaInO3
mp-1183289,15.86866,BaScO3
mp-1183292,31.644575,BaCdO3
mp-1183298,41.99068,BaReO3
mp-1183303,16.041706,BaF3
mp-1183325,37.83082,Ba2V2O5
mp-1183394,20.086994,BaTmO3
mp-1183395,29.000847,BaWO3
mp-1183405,31.20213,BaZnO3
mp-1183589,17.465689,CaF3
mp-1183771,26.16874,DyCuO3
mp-1183878,16.02652,EuCdO3
mp-1183925,20.010994,CsCdO3
mp-1183928,24.06606,Eu2As2O5
mp-1184044,23.229172,CuHgO3
mp-1184073,17.19727,CuPdO3
mp-1184157,17.902504,ErCuO3
mp-1184219,15.917444,ErTlO3
mp-1184939,18.331095,KLiO3
mp-1184946,16.274437,KZnO3
mp-1184957,16.3209,KRbO3
mp-1184960,39.624664,KMgO3
mp-1184992,27.348309,KCdO3
mp-1185487,16.592804,LuF3
mp-1185613,18.62019,MgTlO3
mp-1185862,16.606453,MgF3
mp-1186884,33.902695,RbMgO3
mp-1187177,16.58976,SrF3
mp-1187483,24.636156,TlCuO3
mp-1187562,25.588621,YbCuO3
mp-1187594,16.89698,YbF3
mp-1188205,24.42759,Rb2O3
mp-1188418,16.27264,MgV2(CuO6)2
mp-1188454,22.992195,PbO2
mp-1188508,22.86639,K2MoO2F5
mp-1188736,15.928243,Na2Pd(C2O5)2
mp-1189074,19.199448,Rb2AlOF5
mp-1189161,18.63259,Rb2MnOF5
mp-1189355,17.348017,Zn2SiO5
mp-1189432,16.653503,Zn(H3C)2
mp-1189473,20.136711,FeSb(ClO)8
mp-1189594,17.347797,
mp-1189956,26.398603,BaMnOF5
mp-1190371,15.652722,Fe2O2F5
mp-1190384,26.502392,CaSeO4
mp-1190674,24.309223,
mp-1190696,20.54325,K2RuNO2F5
mp-1191077,24.310825,KCdCl3O
mp-1191168,20.385143,MgGaH4
mp-1191679,72.66717,Sr2Ca3Cu4(BiO6)2
mp-1191741,16.716309,CaSiO4
mp-1191766,15.859348,RbMg(BrO2)3
mp-1191787,18.704613,LiCa3OsO6
mp-1191802,20.191051,Mg(C2O3)2
mp-1191813,21.117533,
mp-1192379,15.4434185,Na2PtF6
mp-1192821,15.351547,NaSbBrOF3
mp-1192982,19.063972,Ba2CuP2O9
mp-1193321,15.43609,AlPO5
mp-1193622,17.28823,
mp-1193690,21.626633,Ge7HO20
mp-1193779,18.087513,Ca(BO5)2
mp-1193860,16.06175,CsIn(SeO5)2
mp-1194011,18.439533,SO12
mp-1194243,15.469379,RbNdSe2O11
mp-1194474,16.883545,BaCl2O11
mp-1194829,15.90855,Tl2PO3
mp-1195056,71.34039,Ca2Co2O5
mp-1195269,70.08155,Ca2Co2O5
mp-1195412,66.85537,Ca2Co2O5
mp-1195459,15.775258,C3F5
mp-1195560,15.21275,C3F5
mp-1195771,17.29467,Zn2As2O9
mp-1196014,16.003777,BaAl2O6
mp-1196035,28.980686,Na6Zn3As4O19
mp-1196062,42.786743,Ca5(IO6)2
mp-1196067,28.06527,InPO6
mp-1196075,16.0737,Si10(H3C)19
mp-1196082,16.15868,KMg2(AsO6)2
mp-1196125,16.735788,Si(H3C)2
mp-1196236,15.486277,K2Sb2SeO5F6
mp-1196240,15.401013,USi8H56(C4N)4
mp-1196275,21.457,BaFeOF5
mp-1196276,22.584795,CaAsHO5
mp-1196368,19.57705,K2Na6Zn4Si14O45
mp-1196400,17.872604,InIO5
mp-1196415,18.487667,Li2Al2(SiO4)3
mp-1196423,17.537323,SrTi(OF3)2
mp-1196462,28.08163,K2BiCl5O2
mp-1196598,21.737537,
mp-1196617,16.201382,Si11(H3C)21
mp-1196622,15.124068,YbCO4
mp-1196695,24.981003,Na2Al2(SiO4)3
mp-1196701,22.714783,Na2Al2Si3O14
mp-1196709,19.32796,Mn2NbC8(NO)8
mp-1196952,18.816116,CaAl2Si3O13
mp-1197109,18.830318,FeSO11
mp-1197151,17.514484,Cd(BrO4)2
mp-1197221,16.001314,Er2S3O20
mp-1197321,21.497955,K2AlB5O14
mp-1197324,19.116962,NaSbO6
mp-1197331,17.48257,HoAl3(H3C)12
mp-1197341,16.65908,Si3As(H3C)9
mp-1197364,16.6748,BiSO6
mp-1197427,16.661133,K2CaSi4O15
mp-1197533,15.525273,LiMnH2OF4
mp-1197555,18.13969,CaAl2(Si2O7)2
mp-1197578,19.094978,CaAsO5
mp-1197648,18.7332,K2Pt(C2O5)2
mp-1197696,20.643135,
mp-1197698,16.579601,
mp-1198169,23.414204,K2MoO3F4
mp-1198220,27.051384,BaAs2O5
mp-1198269,23.50988,NaSbClOF3
mp-1198398,18.049583,CoSO10
mp-1198612,20.102081,
mp-1198755,15.52508,CdSi3AsH27C9I2
mp-1198774,16.12286,Si(H3C)2
mp-1198916,16.38549,KSi2H14C4N
mp-1199217,21.081928,K2TlCl5O2
mp-1199230,15.135981,InSi4H38C14Cl
mp-1199342,16.61002,Si4Ge(H3C)11
mp-1199394,16.192019,Si(H3C)2
mp-1199399,15.957056,TiSi7H48(C8O)2
mp-1199479,17.990664,Ca5(Si3O11)2
mp-1199701,16.725895,Ca(ReO5)2
mp-1199824,17.036678,Ga3P6O31
mp-1199876,18.576942,K2Al2(SiO4)3
mp-1200047,18.787403,K2Mo(OF)4
mp-1200056,15.005353,Sm2Se3O20
mp-1200429,22.559994,Mg2CO5
mp-1200450,25.48742,K3As2O11
mp-1200500,18.885666,Na2ZrSi3O11
mp-1200564,15.015701,ZnSi3GeH35C13BrO
mp-1200736,19.905151,RbNaB4H4O13
mp-1200761,15.898006,Si6H31C10N
mp-1201032,15.3988,Sn4Ge(H3C)12
mp-1201057,20.36211,BaB12(H2O)6
mp-1201175,18.509308,LiBeAsO5
mp-1201240,16.514475,Rb2CuC2O7
mp-1201280,15.088937,
mp-1201366,22.073387,Na4SrSi8O23
mp-1201693,16.980268,CaAl2(Si2O7)2
mp-1201793,16.22047,Si(H3C)2
mp-1201857,16.455683,Si(H3C)2
mp-1202013,16.427116,K3NaP2O11
mp-1202111,21.922047,CaAl2(Si3O10)2
mp-1202315,15.2187605,TiSi7H42C14(ClO)2
mp-1202409,15.425171,InGe2P(H3C)8
mp-1202457,15.040151,ZnSi4H36(C6N)2
mp-1202493,17.465807,CaAl2Si3O13
mp-1202507,17.674,EuAlF5
mp-1202545,18.220943,CaV(Si2O7)2
mp-1202598,18.866013,NaSi4O13
mp-1202676,17.290203,Mg2As2O9
mp-1202690,17.250795,Na4P2NO16
mp-1202794,15.82695,Si10(H3C)19
mp-1202845,15.16256,LiCu2Si12(H3C)27
mp-1202872,15.2982235,KBCNF3
mp-1203214,18.210285,Mg2PO8
mp-1203339,67.30617,Ca2FeCoO5
mp-1203426,18.202492,LiZnAsO5
mp-1203427,16.384289,Zn3Si12H78(C13O2)2
mp-1203696,15.567326,Na3CuPHClO5
mp-1203730,15.109462,InSi4H39C14O
mp-1203780,20.678757,Zr6B(Cl3O4)6
mp-1203909,15.792858,KZnSi3(H11C4)3
mp-1203968,21.499302,CaAl2(Si2O7)3
mp-1204013,21.751863,Ca2Si3O11
mp-1204200,16.361897,Si3Ge2(H3C)11
mp-1204270,138.02423,Ba8Ca8Tl7(Cu4O13)3