id,tc,pretty_formula
B3Rh7-MP-mp-1106065,2.0596893,B3Rh7
B4C1-MP-mp-530074,5.139806,
B4C1-MP-mp-571655,-0.25057957,
B4C1-MP-mp-696746,-0.04410243,B4C1
B4C1-MP-mp-8035,2.2366238,
B4Ce1Co4-MP-mp-22165,0.09099281,B4Ce1Co4
B4Ce1Ru4-MP-mp-1201565,0.038739145,B4Ce1Ru4
B4Co4Dy1-MP-mp-1189595,0.032936037,B4Co4Dy1
B4Co4Er1-MP-mp-1189246,0.030744493,B4Co4Er1
B4Co4Gd1-MP-mp-1181496,-0.09159052,B4Co4Gd1
B4Co4Ho1-MP-mp-1188650,0.010763466,B4Co4Ho1
B4Co4Lu1-MP-mp-1189538,-0.3796407,B4Co4Lu1
B4Co4Tb1-MP-mp-1106036,-0.017317414,B4Co4Tb1
B4Co4Tm1-MP-mp-1190291,-0.07602066,B4Co4Tm1
B4Co4Y1-MP-mp-1105964,0.14671588,B4Co4Y1
B4Dy1Ir2Rh2-MP-mp-1225314,4.548701,B4Dy1Ir2Rh2
B4Dy1Rh4-MP-mp-1105740,0.38420367,B4Dy1Rh4
B4Dy1Ru4-MP-mp-1202990,-0.113955975,B4Dy1Ru4
B4Er1Ir2Rh2-MP-mp-1225576,6.5579453,B4Er1Ir2Rh2
B4Er1Ir4-MP-mp-1189046,1.4946347,B4Er1Ir4
B4Er1Rh4-MP-mp-1200942,7.432101,B4Er1Rh4
B4Er1Rh4-MP-mp-14481,5.4804935,
B4Er1Rh4-MP-mp-8408,2.701548,
B4Er1Ru4-MP-mp-1196250,0.8233686,B4Er1Ru4
B4Eu1Ru4-MP-mp-1199986,-0.11287823,B4Eu1Ru4
B4Gd1Rh4-MP-mp-1106078,0.2681101,B4Gd1Rh4
B4Ho1Rh4-MP-mp-1189784,1.3521755,B4Ho1Rh4
B4Ho1Ru4-MP-mp-1204787,0.60811126,B4Ho1Ru4
B4Ir4Lu0.5Y0.5-MP-mp-1215947,2.9786713,B4Ir4Lu0.5Y0.5
B4Ir4Tm1-MP-mp-1178924,1.4986234,B4Ir4Tm1
B4Lu1Rh4-MP-mp-1006099,8.0042095,
B4Lu1Rh4-MP-mp-1188110,8.300112,
B4Lu1Rh4-MP-mp-28001,9.525921,B4Lu1Rh4
B4Lu1Ru4-MP-mp-568184,1.5328841,B4Lu1Ru4
B4Nd1Rh4-MP-mp-973480,4.784871,B4Nd1Rh4
B4Nd1Ru4-MP-mp-1198170,-0.07184619,B4Nd1Ru4
B4Os1Y1-MP-mp-980205,1.3955283,B4Os1Y1
B4Pr1Ru4-MP-mp-1200756,-0.02817154,B4Pr1Ru4
B4Rh4Sm1-MP-mp-978569,2.6944418,B4Rh4Sm1
B4Rh4Tb1-MP-mp-1178967,0.17617773,B4Rh4Tb1
B4Rh4Th1-MP-mp-1106347,4.2019377,B4Rh4Th1
B4Rh4Tm1-MP-mp-1105638,2.688158,
B4Rh4Tm1-MP-mp-1204414,8.605261,B4Rh4Tm1
B4Rh4Y1-MP-mp-5984,10.0436535,B4Rh4Y1
B4Rh4Yb1-MP-mp-1197168,0.32557845,B4Rh4Yb1
B4Ru1Y1-MP-mp-1190832,1.2054827,B4Ru1Y1
B4Ru4Sc1-MP-mp-1200617,6.673729,B4Ru4Sc1
B4Ru4Sm1-MP-mp-1199012,0.08078337,B4Ru4Sm1
B4Ru4Tb1-MP-mp-1199943,-0.10084432,B4Ru4Tb1
B4Ru4Th1-MP-mp-1203781,-0.47652823,B4Ru4Th1
B4Ru4Tm1-MP-mp-1197448,-0.033786178,B4Ru4Tm1
B4Ru4U1-MP-mp-15355,-0.28582942,B4Ru4U1
B4Ru4Y1-MP-mp-10138,1.3895104,B4Ru4Y1
B4Ru4Yb1-MP-mp-1200533,-0.6159563,B4Ru4Yb1
B4Ta3-MP-mp-10142,0.07011837,B4Ta3
B5W2-MP-mp-570938,4.1791253,
B5W2-MP-mp-8079,1.9311135,
B6Ca1-MP-mp-865,0.14561078,B6Ca1
B6Ce1-MP-mp-21343,-0.20117398,B6Ce1
B6Dy1-MP-mp-568319,0.29943955,B6Dy1
B6Eu1-MP-mp-20874,0.29160726,B6Eu1
B6Gd1-MP-mp-22266,-0.033649907,B6Gd1
B6Ho1-MP-mp-571491,0.013626076,B6Ho1
B6La1-MP-mp-2680,4.3988457,B6La1
B6La3Ru8-MP-mp-4676,2.974145,B6La3Ru8
B6Nd1-MP-mp-1929,2.6522098,B6Nd1
B6Os8Y3-MP-mp-571209,5.271949,B6Os8Y3
B6Pr1-MP-mp-12762,-0.06151773,B6Pr1
B6Rh8Sr3-MP-mp-568771,2.9675384,B6Rh8Sr3
B6Sm1-MP-mp-6996,0.16048643,B6Sm1
B6Tb1-MP-mp-12763,0.46113464,B6Tb1
B6Th1-MP-mp-1756,3.64987,B6Th1
B6Y1-MP-mp-2203,5.1027203,B6Y1
B6Yb1-MP-mp-419,-0.107998975,B6Yb1
Ba0.75Bi1K0.25O3-MP-mp-1223500,-0.36033326,Ba0.75Bi1K0.25O3
Ba1-MP-mp-1008283,0.67114246,
Ba1-MP-mp-1058581,0.3922907,
Ba1-MP-mp-1096835,0.09931706,Ba1
Ba1-MP-mp-1096840,0.2630611,
Ba1-MP-mp-56,0.4209091,
Ba1-MP-mp-570384,1.437213,
Ba1.5Cu3La0.5Y1O7-MP-mp-1228381,-0.6330451,Ba1.5Cu3La0.5Y1O7
Ba1Bi0.25Pb0.75O3-MP-mp-1228189,-1.0014324,
Ba1Bi0.25Pb0.75O3-MP-mp-1228269,5.870751,
Ba1Bi0.25Pb0.75O3-MP-mp-1228450,8.577959,Ba1Bi0.25Pb0.75O3
Ba1Bi0.2Pb0.8O3-MP-mp-1228869,8.587549,
Ba1Bi0.2Pb0.8O3-MP-mp-1228896,7.725606,
Ba1Bi1O3-MP-mp-1182285,16.761034,
Ba1Bi1O3-MP-mp-1227955,-0.21872595,
Ba1Bi1O3-MP-mp-22942,-0.59272784,
Ba1Bi1O3-MP-mp-23438,0.55360067,
Ba1Bi1O3-MP-mp-23482,0.13567036,
Ba1Bi1O3-MP-mp-545783,-0.5060684,
Ba1Bi1O3-MP-mp-559051,-0.86388975,Ba1Bi1O3
Ba1Bi1O3-MP-mp-644369,25.44503,
Ba1Bi2Ti2O1-MP-mp-1070808,4.355817,Ba1Bi2Ti2O1
Ba1Bi3-MP-mp-23201,5.1325035,Ba1Bi3
Ba1C6-MP-mp-1214417,0.23434898,Ba1C6
Ba1Ca1Sn1-MP-mp-11265,0.3120045,Ba1Ca1Sn1
Ba1Cu1Gd2O5-MP-mp-1182677,0.24285793,Ba1Cu1Gd2O5
Ba1Cu1Y2O5-MP-mp-542733,-0.19353923,Ba1Cu1Y2O5
Ba1Fe2P2-MP-mp-4883,0.21012078,Ba1Fe2P2
Ba1Fe2Se3-MP-mp-1102153,9.692483,
Ba1Fe2Se3-MP-mp-504563,10.202334,Ba1Fe2Se3
Ba1Ga1Ge1-MP-mp-1102026,2.5077262,Ba1Ga1Ge1
Ba1Ga1Ge1-MP-mp-1227942,1.780884,
Ba1Ga1Si1-MP-mp-1227940,3.41077,Ba1Ga1Si1
Ba1Ga2-MP-mp-1219,0.32931885,Ba1Ga2
Ba1Ga2-MP-mp-1227946,0.595126,
Ba1Ge12Pt4-MP-mp-642304,4.713393,Ba1Ge12Pt4
Ba1Ge1In1-MP-mp-1227944,0.9592827,Ba1Ge1In1
Ba1Ge2-MP-mp-2139,4.981007,Ba1Ge2
Ba1Ge2-MP-mp-2611,3.3286405,
Ba1Ge3-MP-mp-1078234,3.8204696,Ba1Ge3
Ba1Ge3-MP-mp-1105500,3.0413175,
Ba1Hg1-MP-mp-2197,2.2484145,Ba1Hg1
Ba1Ir2P2-MP-mp-11169,1.9373069,Ba1Ir2P2
Ba1Ni2P2-MP-mp-9473,-0.15891258,Ba1Ni2P2
Ba1Os2P2-MP-mp-12056,0.19675395,Ba1Os2P2
Ba1P2Rh2-MP-mp-8583,1.0011971,Ba1P2Rh2
Ba1P2Ru2-MP-mp-4484,0.15222424,Ba1P2Ru2
Ba1Pd2-MP-mp-1687,0.22473192,Ba1Pd2
Ba1Pt1Si3-MP-mp-1069809,2.475453,Ba1Pt1Si3
Ba1Pt2-MP-mp-747,0.08111109,Ba1Pt2
Ba1Rh2-MP-mp-568430,3.6092057,Ba1Rh2
Ba1S3V1-MP-mp-3451,0.07035881,Ba1S3V1
Ba1S3V1-MP-mp-4227,0.011064112,
Ba1S3V1-MP-mp-542818,0.1670435,
Ba1S3V1-MP-mp-555857,0.19488445,
Ba1Sb2Ti2O1-MP-mp-1070806,1.0802969,Ba1Sb2Ti2O1
Ba1Si2-MP-mp-1009827,0.6395155,
Ba1Si2-MP-mp-1477,4.7152543,Ba1Si2
Ba1Si2-MP-mp-7275,3.6582959,
Ba1Si2-MP-mp-7655,4.139568,
Ba1Si2-MP-mp-7701,4.0318847,
Ba1Sn3-MP-mp-7759,3.6605124,Ba1Sn3
Ba1Ti1O3-MP-mp-1076932,8.067363,
Ba1Ti1O3-MP-mp-19990,6.8149753,
Ba1Ti1O3-MP-mp-2998,-0.08505575,
Ba1Ti1O3-MP-mp-5020,-0.15819177,Ba1Ti1O3
Ba1Ti1O3-MP-mp-504715,3.2890887,
Ba1Ti1O3-MP-mp-558125,3.1300495,
Ba1Ti1O3-MP-mp-5777,0.5162966,
Ba1Ti1O3-MP-mp-5933,3.1422944,
Ba1Ti1O3-MP-mp-5986,0.3233239,
Ba1Ti1O3-MP-mp-644497,3.056189,
Ba1Ti1O3-MP-mp-995191,4.5734453,
Ba24Si100-MP-mp-16094,1.5851289,Ba24Si100
Ba2Bi2K1O7-MP-mp-1223506,-0.56376666,Ba2Bi2K1O7
Ba2Bi3-MP-mp-569529,4.253196,Ba2Bi3
Ba2Ca0.2Cu3Y0.8O7-MP-mp-1228878,14.127201,
Ba2Ca1Cu2Tl1O7-MP-mp-632802,78.2251,Ba2Ca1Cu2Tl1O7
Ba2Ca2Cu3Tl2O10-MP-mp-1228620,116.283264,Ba2Ca2Cu3Tl2O10
Ba2Ca2Cu3Tl2O10-MP-mp-653154,111.72211,
Ba2Cl1Cu2Nb1Pb2O8-MP-mp-1228495,-0.8186913,Ba2Cl1Cu2Nb1Pb2O8
Ba2Cl1Cu2Pb2Ta1O8-MP-mp-1228449,-0.851087,Ba2Cl1Cu2Pb2Ta1O8
Ba2Cu1Hg1O4.2-MP-mp-1229200-synth_doped,43.79653,
Ba2Cu1Hg1Tl1O6-MP-mp-1228447,-0.6274559,Ba2Cu1Hg1Tl1O6
Ba2Cu1Tl1O5-MP-mp-20942,90.667145,Ba2Cu1Tl1O5
Ba2Cu2Eu2Ti2O11-MP-mp-616471,10.303595,Ba2Cu2Eu2Ti2O11
Ba2Cu2La1Nb1O8-MP-mp-1214654,-0.99979913,Ba2Cu2La1Nb1O8
Ba2Cu2La2Ti2O11-MP-mp-1214655,-0.16744971,Ba2Cu2La2Ti2O11
Ba2Cu2Nb1Pr1O8-MP-mp-1228503,-0.2067855,Ba2Cu2Nb1Pr1O8
Ba2Cu2Nd1Tl1O7-MP-mp-1228402,-0.7156256,Ba2Cu2Nd1Tl1O7
Ba2Cu2Nd2Ti2O11-MP-mp-557043,-0.013366908,Ba2Cu2Nd2Ti2O11
Ba2Cu2Tl1Y1O7-MP-mp-654374,11.103182,Ba2Cu2Tl1Y1O7
Ba2Cu3Er0.5Pr0.5O7-MP-mp-1228227,26.9861,Ba2Cu3Er0.5Pr0.5O7
Ba2Cu3Er1O7-MP-mp-622110,82.08034,Ba2Cu3Er1O7
Ba2Cu3Eu1O6.5-MP-mp-1228334,88.22821,Ba2Cu3Eu1O6.5
Ba2Cu3Gd0.5Pr0.5O7-MP-mp-1228407,-1.0475235,Ba2Cu3Gd0.5Pr0.5O7
Ba2Cu3Ho1O7-MP-mp-6616,89.44732,Ba2Cu3Ho1O7
Ba2Cu3La0.5Pr0.5O7-MP-mp-1228253,45.691734,Ba2Cu3La0.5Pr0.5O7
Ba2Cu3La1O7-MP-mp-1228519,50.188034,
Ba2Cu3La1O7-MP-mp-622210,89.34682,Ba2Cu3La1O7
Ba2Cu3Lu1O7-MP-mp-20324,79.59041,Ba2Cu3Lu1O7
Ba2Cu3Nd0.5Pr0.5O7-MP-mp-1228202,3.3413782,Ba2Cu3Nd0.5Pr0.5O7
Ba2Cu3Pr0.5Sm0.5O7-MP-mp-1228206,-0.48418695,Ba2Cu3Pr0.5Sm0.5O7
Ba2Cu3Pr0.5Y0.5O7-MP-mp-1228182,21.695837,Ba2Cu3Pr0.5Y0.5O7
Ba2Cu3Pr0.5Y0.5O7-MP-mp-1228236,17.72411,
Ba2Cu3Pr0.5Y0.5O7-MP-mp-1228301,5.3315744,
Ba2Cu3Pr0.5Y0.5O7-MP-mp-1228357,2.7026024,
Ba2Cu3Pr1O6-MP-mp-1214585,-1.8846366,Ba2Cu3Pr1O6
Ba2Cu3Pr1O6-MP-mp-1228546,41.343815,
Ba2Cu3S1Y1O6-MP-mp-1214650,86.99065,Ba2Cu3S1Y1O6
Ba2Cu3Tm1O7-MP-mp-622108,80.69497,Ba2Cu3Tm1O7
Ba2Cu3Y1O6-MP-mp-1021507,58.353138,
Ba2Cu3Y1O6-MP-mp-1228465,49.599438,
Ba2Cu3Y1O6-MP-mp-22215,0.6664386,Ba2Cu3Y1O6
Ba2Cu4Dy1O8-MP-mp-6691,81.45981,Ba2Cu4Dy1O8
Ba2Cu4Gd1O8-MP-mp-1214720,68.30066,Ba2Cu4Gd1O8
Ba2Cu4Ho1O8-MP-mp-6205,71.90371,Ba2Cu4Ho1O8
Ba2Cu4Pr0.5Y0.5O8-MP-mp-1228147,13.679055,
Ba2Cu4Pr1O8-MP-mp-6779,-0.6726516,Ba2Cu4Pr1O8
Ba2Cu4Sm1O8-MP-mp-1214577,64.93408,Ba2Cu4Sm1O8
Ba2Cu4Tm1O8-MP-mp-6710,68.57238,Ba2Cu4Tm1O8
Ba2Cu4Yb1O8-MP-mp-15039,76.21202,Ba2Cu4Yb1O8
Ba2Ho1Sb1O6-MP-mp-6687,-0.30231437,Ba2Ho1Sb1O6
Ba2Sb6Sn3-MP-mp-29087,3.4076748,Ba2Sb6Sn3
Ba3Ge16Ir4-MP-mp-1190530,5.6389503,Ba3Ge16Ir4
Ba4Pb3O10-MP-mp-752906,-0.31462485,Ba4Pb3O10
Ba6C60-MP-mp-18027,7.0310106,Ba6C60
Ba6Ge25-MP-mp-569965,0.30397314,Ba6Ge25
Ba6Nb10O30-MP-mp-8846,1.315496,Ba6Nb10O30
Ba8Cu4Si42-MP-mp-1228302,2.7446747,Ba8Cu4Si42
Ba8Ga6Si40-MP-mp-1214507,2.9983878,Ba8Ga6Si40
Ba8Ge46-MP-mp-1214616,3.111687,
Ba8Si46-MP-mp-640551,3.9808135,Ba8Si46
Be1-MP-mp-1008501,1.427561,
Be1-MP-mp-87,2.3735745,Be1
Be12Co1-MP-mp-1104193,-0.093379736,Be12Co1
Be12Cr1-MP-mp-1590,0.11626768,Be12Cr1
Be12Mn1-MP-mp-1104792,-0.43573236,Be12Mn1
Be12Mo1-MP-mp-1475,0.31402898,Be12Mo1
Be12Nb1-MP-mp-568912,0.8317474,Be12Nb1
Be12Pd1-MP-mp-12666,0.060887218,Be12Pd1
Be12Ta1-MP-mp-567842,0.106954336,Be12Ta1
Be12W1-MP-mp-568827,0.09032297,Be12W1
Be13Ca1-MP-mp-1845,-0.06713283,Be13Ca1
Be13Ce1-MP-mp-457,0.35634464,Be13Ce1
Be13Hf1-MP-mp-1878,0.04424852,Be13Hf1
Be13La1-MP-mp-1193251,-0.04578972,Be13La1
Be13Lu1-MP-mp-976039,0.23137438,Be13Lu1
Be13Mg1-MP-mp-855,-0.17050725,Be13Mg1
Be13Mo1-MP-mp-1214523,5.3869963,
Be13Mo1-MP-mp-1215126,2.27491,
Be13Th1-MP-mp-1562,0.15484434,Be13Th1
Be13U1-MP-mp-1163,0.50674784,Be13U1
Be13W1-MP-mp-1214511,5.724441,
Be13W1-MP-mp-1215017,2.1479728,
Be13Y1-MP-mp-1193534,0.022087634,Be13Y1
Be13Zr1-MP-mp-30445,0.29463822,Be13Zr1
Be17Hf2-MP-mp-1105643,0.8017991,
Be17Hf2-MP-mp-1198059,1.2377915,
Be17Hf2-MP-mp-1212567,-0.06325209,Be17Hf2
Be17Nb2-MP-mp-30441,1.2357591,Be17Nb2
Be17Ru3-MP-mp-30443,0.6230874,Be17Ru3
Be17Ta2-MP-mp-1189402,0.039946556,Be17Ta2
Be17Zr2-MP-mp-2544,0.94452274,Be17Zr2
Be1H3Li1-MP-mp-1079676,7.031109,
Be1H3Li1-MP-mp-24342,7.563834,
Be1H3Li1-MP-mp-24817,4.9333153,
Be1H3Li1-MP-mp-24818,8.162339,
Be1H3Li1-MP-mp-570218,0.04877323,Be1H3Li1
Be1H3Li1-MP-mp-977148,8.170546,
Be1H3Li1-MP-mp-977298,5.194994,
Be1H4Li2-MP-mp-1180666,2.85691,Be1H4Li2
Be1H4Li2-MP-mp-1200545,3.5973155,
Be1H4Li2-MP-mp-1238195,3.6939096,
Be1H4Li2-MP-mp-30535,3.3915346,
Be1Mo3-MP-mp-11271,0.5088841,Be1Mo3
Be1Rh1-MP-mp-11276,3.3938768,Be1Rh1
Be1Ta2-MP-mp-11278,0.2603109,Be1Ta2
Be22Mo1-MP-mp-30440,2.0474443,Be22Mo1
Be22Re1-MP-mp-569364,2.2316027,Be22Re1
Be22W1-MP-mp-30444,1.5323904,Be22W1
Be2Cr1-MP-mp-30438,2.6591506,Be2Cr1
Be2Fe1-MP-mp-2225,0.45758513,Be2Fe1
Be2Mn1-MP-mp-11270,0.5383368,Be2Mn1
Be2Mo1-MP-mp-1677,0.35299864,Be2Mo1
Be2Nb1-MP-mp-2028,-1.0848485,Be2Nb1
Be2Nb3-MP-mp-11272,2.0699136,Be2Nb3
Be2Re1-MP-mp-11275,0.28877687,Be2Re1
Be2Ru1-MP-mp-1103315,1.6798452,Be2Ru1
Be2Ta3-MP-mp-1078957,1.0286075,Be2Ta3
Be2Ti1-MP-mp-2749,1.6311786,Be2Ti1
Be2W1-MP-mp-11282,0.20316657,Be2W1
Be2Zr1-MP-mp-1252,1.4192579,Be2Zr1
Be3Cu1-MP-mp-1183404,3.7122746,
Be3Cu1-MP-mp-1227357,0.19971097,Be3Cu1
Be3Nb1-MP-mp-11273,-0.081913814,Be3Nb1
Be5Co1-MP-mp-1071690,0.39039493,Be5Co1
Be5Pd1-MP-mp-650,0.5245795,Be5Pd1
Be5Pt1-MP-mp-1072399,2.1047168,Be5Pt1
Bi0.25Pd0.75-MP-mp-1227285,1.0520052,
Bi0.25Pd0.75-MP-mp-30463,0.14093274,Bi0.25Pd0.75
Bi0.2Pb0.8-MP-mp-1227459,7.681179,Bi0.2Pb0.8
Bi0.5Pb0.5-MP-mp-1227326,7.829479,Bi0.5Pb0.5
Bi0.5Sn0.5-MP-mp-1039106,4.2897367,
Bi0.5Sn0.5-MP-mp-1218947,3.8229015,
Bi0.5Sn0.5-MP-mp-1218964,2.916208,Bi0.5Sn0.5
Bi0.5Sn0.5-MP-mp-570686,2.9192777,
Bi1-MP-mp-1067758,4.4602494,
Bi1-MP-mp-1078637,5.8203373,
Bi1-MP-mp-1096851,2.9743922,
Bi1-MP-mp-1182070,4.559272,
Bi1-MP-mp-1182248,0.5474106,
Bi1-MP-mp-23152,5.5881147,Bi1
Bi1-MP-mp-23157,3.569873,
Bi1-MP-mp-568087,4.1585937,
Bi1-MP-mp-569358,1.259954,
Bi1.5La4Pb1.5-MP-mp-1223136,2.4297547,Bi1.5La4Pb1.5
Bi1.5La4Sb1.5-MP-mp-1223101,0.523163,Bi1.5La4Sb1.5
Bi10Fe10Sr15O46-MP-mp-616616,-0.21288013,Bi10Fe10Sr15O46
Bi14Rh3-MP-mp-581527,3.057107,
Bi1Ca0.5Cu2Pb1Sr2Y0.5O8-MP-mp-1218870,83.2919,Bi1Ca0.5Cu2Pb1Sr2Y0.5O8
Bi1Ce1-MP-mp-23285,0.21816535,Bi1Ce1
Bi1Ce1-MP-mp-635471,0.12530744,
Bi1Ce1-MP-mp-639445,0.076370835,
Bi1Ce1Pd1-MP-mp-604453,1.224196,Bi1Ce1Pd1
Bi1Ce1S2O1-MP-mp-610469,1.3200164,Bi1Ce1S2O1
Bi1Cr1-MP-mp-1079128,0.057743266,Bi1Cr1
Bi1Cs3-MP-mp-635413,-0.03948021,
Bi1Cu1-MP-mp-569792,1.6557279,Bi1Cu1
Bi1Cu1Mg1-MP-mp-30449,0.13775526,Bi1Cu1Mg1
Bi1Er1Pd1-MP-mp-1206953,1.2297618,Bi1Er1Pd1
Bi1Er1Pd1-MP-mp-1206955,2.0432954,
Bi1F0.5La1S2O0.5-MP-mp-1223274,6.3740563,Bi1F0.5La1S2O0.5
Bi1F1S2Sr1-MP-mp-1078631,-0.118556455,Bi1F1S2Sr1
Bi1In2-MP-mp-1223757,3.9630532,
Bi1In2-MP-mp-1223979,3.0524,
Bi1In2-MP-mp-23188,5.0203114,Bi1In2
Bi1In2-MP-mp-571172,4.3023624,
Bi1K1-MP-mp-31104,3.4098887,Bi1K1
Bi1K1O3-MP-mp-29799,8.241041,Bi1K1O3
Bi1K1O3-MP-mp-676536,7.321806,
Bi1K1O3-MP-mp-863367,6.4280176,
Bi1K1O3-MP-mp-982040,-0.59301984,
Bi1K3-MP-mp-31286,0.21623588,Bi1K3
Bi1K3-MP-mp-568516,-0.1125364,
Bi1K3-MP-mp-569940,-0.694659,
Bi1La1-MP-mp-22926,0.29179186,Bi1La1
Bi1La1Pt1-MP-mp-1018136,0.9929514,Bi1La1Pt1
Bi1La1S2O1-MP-mp-1078328,-0.6631403,
Bi1La1S2O1-MP-mp-1078397,0.025537312,Bi1La1S2O1
Bi1La2-MP-mp-1077063,2.5095215,Bi1La2
Bi1La4Pb2-MP-mp-1223139,3.1482563,Bi1La4Pb2
Bi1Li1-MP-mp-22902,2.3794632,Bi1Li1
Bi1Li3-MP-mp-23222,0.47415787,Bi1Li3
Bi1Lu1Pt1-MP-mp-1206992,1.0409806,Bi1Lu1Pt1
Bi1Mg1-MP-mp-1038936,0.09896934,
Bi1Mg1-MP-mp-1038970,0.22319853,
Bi1Mg1-MP-mp-1039050,1.157521,
Bi1Mg1-MP-mp-1039074,0.7520321,
Bi1Mg1-MP-mp-1039154,0.25454122,
Bi1Mg1-MP-mp-1039170,0.8084703,
Bi1Mg1-MP-mp-1039188,-0.2546138,
Bi1Mg1-MP-mp-1039236,0.3428057,
Bi1Mg1-MP-mp-1039305,0.73123395,Bi1Mg1
Bi1Mg1-MP-mp-1039334,0.3996758,
Bi1Mg1-MP-mp-1095012,0.33667302,
Bi1Mg1-MP-mp-1185694,1.0725218,
Bi1Mn1-MP-mp-1221736,1.1394513,
Bi1Mn1-MP-mp-22878,0.14985657,
Bi1Mn1-MP-mp-568382,0.22674456,Bi1Mn1
Bi1Na1-MP-mp-22924,1.4663409,Bi1Na1
Bi1Na3-MP-mp-27838,0.17370576,Bi1Na3
Bi1Na3-MP-mp-977189,0.6287062,
Bi1Nb3-MP-mp-1220638,5.4645863,
Bi1Nb3-MP-mp-568014,2.6276746,Bi1Nb3
Bi1Ni1-MP-mp-1220533,4.063171,Bi1Ni1
Bi1Ni1-MP-mp-22861,1.0680482,
Bi1Ni1-MP-mp-999318,1.6091772,
Bi1Pd1-MP-mp-1008488,3.3060603,Bi1Pd1
Bi1Pd1-MP-mp-23206,1.2054646,
Bi1Pd1-MP-mp-569727,1.2996814,
Bi1Pd1Se1-MP-mp-1095370,0.9973501,Bi1Pd1Se1
Bi1Pd1Te1-MP-mp-29011,1.2480949,Bi1Pd1Te1
Bi1Pr1-MP-mp-1001605,0.48689926,
Bi1Pr1-MP-mp-1011031,0.5225555,
Bi1Pr1-MP-mp-23171,0.17872053,Bi1Pr1
Bi1Pt1-MP-mp-1066078,2.448523,Bi1Pt1
Bi1Pt1-MP-mp-22923,2.277596,
Bi1Pt1Se1-MP-mp-1103607,0.89857674,Bi1Pt1Se1
Bi1Pt1Te1-MP-mp-29638,1.1530844,Bi1Pt1Te1
Bi1Pt1Y1-MP-mp-1206679,0.9616187,Bi1Pt1Y1
Bi1Rb1O3-MP-mp-975384,2.1208143,Bi1Rb1O3
Bi1Rh1-MP-mp-1064554,1.848174,Bi1Rh1
Bi1Rh1-MP-mp-22868,1.9029197,
Bi1S1-MP-mp-1064840,1.487063,
Bi1S1-MP-mp-28677,0.32553118,Bi1S1
Bi1S1-MP-mp-581693,0.39619848,
Bi1S3-MP-mp-1183481,1.9775424,Bi1S3
Bi1Sb1-MP-mp-1227290,1.5960703,Bi1Sb1
Bi1Sc1-MP-mp-570632,0.2027082,Bi1Sc1
Bi1Te2Tl1-MP-mp-1216532,1.6503941,
Bi1Te2Tl1-MP-mp-27438,1.6626832,Bi1Te2Tl1
Bi1Ti3-MP-mp-866201,0.37012565,Bi1Ti3
Bi1V3-MP-mp-1120717,0.34508795,Bi1V3
Bi1Y1-MP-mp-23241,0.24305457,Bi1Y1
Bi1Zr3-MP-mp-1188051,2.3104513,
Bi1Zr3-MP-mp-1207416,2.5307636,Bi1Zr3
Bi2Ca1Cu2I1Sr2O8-MP-mp-1209124,53.20739,Bi2Ca1Cu2I1Sr2O8
Bi2Ca1Cu2Sr2O8-MP-mp-1218930,59.69661,Bi2Ca1Cu2Sr2O8
Bi2Ca1Cu2Sr2O8-MP-mp-555855,52.56495,
Bi2Ca3-MP-mp-1013735,1.8491951,
Bi2Cs1-MP-mp-23163,3.0592864,
Bi2Cu1O4-MP-mp-1232323,-0.13193168,
Bi2Cu1O4-MP-mp-505042,2.1795263,Bi2Cu1O4
Bi2Cu1Sr2O6-MP-mp-555827,8.466258,Bi2Cu1Sr2O6
Bi2Cu2Er1Sr2O8-MP-mp-1208931,-0.5008797,Bi2Cu2Er1Sr2O8
Bi2Cu2Pr1Sr2O8-MP-mp-1208752,-0.7523544,Bi2Cu2Pr1Sr2O8
Bi2Cu2Sr2Y1O8-MP-mp-1208753,-0.85729986,
Bi2Cu2Sr2Y1O8-MP-mp-1208863,-0.16895795,Bi2Cu2Sr2Y1O8
Bi2Ir1-MP-mp-1101783,2.5334644,Bi2Ir1
Bi2K1-MP-mp-23279,3.8413315,Bi2K1
Bi2K3-MP-mp-1206573,0.2841286,Bi2K3
Bi2La4Pb1-MP-mp-1223111,1.4929254,Bi2La4Pb1
Bi2La4Sn1-MP-mp-1223150,1.438657,Bi2La4Sn1
Bi2Mg3-MP-mp-1196079,3.4910617,
Bi2Mg3-MP-mp-569018,0.27116203,Bi2Mg3
Bi2Ni3S2-MP-mp-1220111,2.0167713,
Bi2Ni3S2-MP-mp-553994,0.62817144,
Bi2Ni3S2-MP-mp-559634,2.9340618,
Bi2Ni3S2-MP-mp-642190,0.74961984,Bi2Ni3S2
Bi2Ni3Se2-MP-mp-30973,1.7730191,Bi2Ni3Se2
Bi2Pd1-MP-mp-568746,3.5327833,Bi2Pd1
Bi2Pd1-MP-mp-570197,2.2146735,
Bi2Pd3S2-MP-mp-1104120,-0.48904794,
Bi2Pd3S2-MP-mp-1182562,0.783554,
Bi2Pd3S2-MP-mp-23012,0.31309164,Bi2Pd3S2
Bi2Pd3S2-MP-mp-554304,1.0789557,
Bi2Pd3Se2-MP-mp-1103697,0.9604181,Bi2Pd3Se2
Bi2Pt1-MP-mp-1078313,2.7213316,
Bi2Pt1-MP-mp-1092293,2.0440469,
Bi2Pt1-MP-mp-22864,2.3445969,
Bi2Pt1-MP-mp-568531,0.19069672,Bi2Pt1
Bi2Pt1-MP-mp-569581,3.2149158,
Bi2Rb1-MP-mp-23253,5.00861,
Bi2Rh1-MP-mp-23217,0.961057,Bi2Rh1
Bi2S1-MP-mp-1103100,0.3066077,Bi2S1
Bi2S2O1-MP-mp-1078366,0.07579113,Bi2S2O1
Bi2S3-MP-mp-22856,1.4935802,Bi2S3
Bi2Se3-MP-mp-1182583,1.173518,
Bi2Se3-MP-mp-1198150,-1.5805688,
Bi2Se3-MP-mp-23164,0.0709448,
Bi2Se3-MP-mp-541837,4.6129436,Bi2Se3
Bi2Te1-MP-mp-1227413,7.9343634,Bi2Te1
Bi2Te3-MP-mp-1182783,1.9731605,
Bi2Te3-MP-mp-34202,3.6590853,Bi2Te3
Bi2Te3-MP-mp-568390,3.5248704,
Bi2Zr1-MP-mp-29642,0.5344114,Bi2Zr1
Bi3Ca1-MP-mp-866006,1.9479175,Bi3Ca1
Bi3In5-MP-mp-23180,5.2985578,
Bi3La4-MP-mp-23187,0.6091664,
Bi3La5-MP-mp-1105962,-0.037350357,
Bi3Mo1-MP-mp-1189810,3.403049,Bi3Mo1
Bi3Ni1-MP-mp-23179,3.6198123,Bi3Ni1
Bi3Rh1-MP-mp-581990,2.079616,
Bi3Sn1-MP-mp-1039347,3.683811,
Bi3Sn1-MP-mp-978882,3.8269734,Bi3Sn1
Bi3Sr1-MP-mp-23159,5.324917,Bi3Sr1
Bi3Zn1-MP-mp-1100776,1.492127,
Bi3Zn1-MP-mp-971718,1.036454,Bi3Zn1
Bi4Rh1-MP-mp-30467,2.3366394,Bi4Rh1
Bi4Te3-MP-mp-28229,2.8546922,Bi4Te3
Br0.5C2I1.5Y2-MP-mp-1216139,8.116799,Br0.5C2I1.5Y2
Br1N1Ti1-MP-mp-27849,0.24566282,Br1N1Ti1
Br2-MP-mp-1062055,0.45099258,
Br2-MP-mp-1120813,5.947733,
Br2-MP-mp-23154,1.4591334,Br2
Br2C2La2-MP-mp-1206284,6.680184,Br2C2La2
Br2C2Y2-MP-mp-37919,2.284365,
Br2C2Y2-MP-mp-643367,4.735138,Br2C2Y2
Br2Cu1-MP-mp-1147530,0.8999735,
Br2Cu1-MP-mp-1147532,0.64056396,
Br2Cu1-MP-mp-23219,0.19713172,Br2Cu1
Br2Mo6S6-MP-mp-29231,12.685107,Br2Mo6S6
C0.4Mo0.6-MP-mp-1221473,6.179715,
C0.4Mo0.6-MP-mp-1221489,4.0137267,
C0.5W0.5-MP-mp-1008630,5.641298,
C0.5W0.5-MP-mp-1008635,1.4495953,
C0.5W0.5-MP-mp-13136,5.1527014,
C0.5W0.5-MP-mp-1894,9.947133,C0.5W0.5
C0.75Mo1-MP-mp-1221488,8.842384,
C1-MP-mp-1008374,8.269871,
C1-MP-mp-1008395,4.09137,
C1-MP-mp-1018088,2.8600783,
C1-MP-mp-1040425,2.1276627,
C1-MP-mp-1056957,0.5099411,
C1-MP-mp-1078845,2.6977408,
C1-MP-mp-1080826,3.44094,
C1-MP-mp-1095534,3.2757785,
C1-MP-mp-1095633,3.669318,
C1-MP-mp-1096869,8.824991,
C1-MP-mp-1097832,0.52335995,
C1-MP-mp-1147718,9.10161,
C1-MP-mp-1182684,12.183983,
C1-MP-mp-1188817,3.2664933,
C1-MP-mp-1190171,4.651223,
C1-MP-mp-1192619,5.152817,
C1-MP-mp-1194362,9.648851,
C1-MP-mp-1196583,11.120422,
C1-MP-mp-1196857,11.218314,
C1-MP-mp-1197903,13.035467,
C1-MP-mp-1203645,8.920748,
C1-MP-mp-1205283,8.088068,
C1-MP-mp-1205417,6.924157,
C1-MP-mp-1244913,7.757723,
C1-MP-mp-1244964,7.5390205,
C1-MP-mp-1245190,7.308822,
C1-MP-mp-169,6.3461046,
C1-MP-mp-24,3.3713984,
C1-MP-mp-47,9.196116,
C1-MP-mp-48,4.9000716,
C1-MP-mp-568028,8.015878,
C1-MP-mp-568286,6.353746,
C1-MP-mp-568363,4.987938,
C1-MP-mp-568410,4.0128455,
C1-MP-mp-568806,6.499468,
C1-MP-mp-569304,6.745172,C1
C1-MP-mp-569416,9.015182,
C1-MP-mp-569517,6.7047625,
C1-MP-mp-569567,6.912133,
C1-MP-mp-570002,3.1143217,
C1-MP-mp-579909,1.0595261,
C1-MP-mp-606949,7.967146,
C1-MP-mp-611426,7.880155,
C1-MP-mp-611448,6.6608424,
C1-MP-mp-616440,5.1248236,
C1-MP-mp-624889,2.2788615,
C1-MP-mp-630227,5.537033,
C1-MP-mp-632329,6.6062145,
C1-MP-mp-66,9.125597,
C1-MP-mp-667273,5.402672,
C1-MP-mp-680372,5.032552,
C1-MP-mp-683919,9.756474,
C1-MP-mp-937760,6.3715115,
C1-MP-mp-990424,3.3986058,
C1-MP-mp-990448,2.6132913,
C1-MP-mp-997182,4.256705,
C1Cd1Ni3-MP-mp-1206343,2.5660267,C1Cd1Ni3
C1Cd1Ti2-MP-mp-9961,1.689707,C1Cd1Ti2
C1Cr2Ga1-MP-mp-20197,0.1846103,C1Cr2Ga1
C1Cu11Sr8Y4O28-MP-mp-1173193,-0.3052079,C1Cu11Sr8Y4O28
C1Cu1Sr2O5-MP-mp-1147662,-0.7985704,
C1Cu1Sr2O5-MP-mp-1198030,-0.32720047,C1Cu1Sr2O5
C1Cu1Sr2O5-MP-mp-1218825,-0.45016167,
C1Cu1Sr2O5-MP-mp-6312,-0.18791485,
C1Fe3-MP-mp-1182630,6.497891,
C1Fe3-MP-mp-1188724,1.3776113,
C1Fe3-MP-mp-1205436,3.551375,
C1Fe3-MP-mp-1205444,5.5722623,
C1Fe3-MP-mp-13154,0.96571606,C1Fe3
C1Fe3-MP-mp-510623,1.9632901,
C1Fe3-MP-mp-613523,2.7661195,
C1Ga1Mo2-MP-mp-1079635,5.8960743,C1Ga1Mo2
C1Ga1Ni3-MP-mp-1206991,0.22417712,C1Ga1Ni3