id,tc,pretty_formula
Sr1-MP-mp-139,1.7876191,
Sr1-MP-mp-567826,3.0313807,Sr1
Sr1-MP-mp-867202,2.6881828,
Sr1Ti1O3-MP-mp-4651,2.307075,Sr1Ti1O3
Sr1Ti1O3-MP-mp-5229,0.42251328,
Sr1Ti1O3-MP-mp-551830,0.24120964,
Sr1Ti1O3-MP-mp-776018,9.629803,
Sr4V3O9.8-MP-mp-759591,-0.55169594,Sr4V3O9.8
Ta0.5V0.5-MP-mp-1217812,2.5288234,Ta0.5V0.5
Ta1-MP-mp-1076923,0.7249987,
Ta1-MP-mp-1095086,1.673418,
Ta1-MP-mp-1217805,0.58938694,
Ta1-MP-mp-42,3.8243167,Ta1
Ta1-MP-mp-569794,3.8563929,
Ta1-MP-mp-697196,4.0819006,
Ta1Te2-MP-mp-1967,0.21058673,Ta1Te2
Ta1Te2-MP-mp-601823,1.6107283,
Ta1V2-MP-mp-567276,1.6286514,Ta1V2
Ta25Ti75-MP-mp-1187250,3.5963314,Ta25Ti75
Ta25Ti75-MP-mp-1187253,2.2626219,
Ta25Ti75-MP-mp-1187256,2.9074166,
Tb1-MP-mp-11698,0.42727008,Tb1
Tb1-MP-mp-18,1.7776446,
Tb1-MP-mp-571249,1.6350868,
Tc0.5Ti0.5-MP-mp-11573,1.5593176,Tc0.5Ti0.5
Tc0.5W0.5-MP-mp-1217337,6.667096,Tc0.5W0.5
Tc1-MP-mp-113,7.018642,Tc1
Tc1-MP-mp-867351,15.153433,
Tc2Y1-MP-mp-1102030,7.7143393,Tc2Y1
Tc2Zr1-MP-mp-1095545,6.666654,Tc2Zr1
Te1-MP-mp-105,3.409321,
Te1-MP-mp-1064307,1.463685,
Te1-MP-mp-1178952,1.3722396,
Te1-MP-mp-19,1.8683865,Te1
Te1-MP-mp-567313,3.5202975,Te1
Te1-MP-mp-570459,2.8720834,
Te1Th1-MP-mp-1921,0.23439735,Te1Th1
Te1Ti1-MP-mp-567832,0.2911878,Te1Ti1
Te1Ti1-MP-mp-599,0.293567,
Te1Y1-MP-mp-1708,0.8045445,
Te1Y1-MP-mp-865430,1.4802167,Te1Y1
Te2Ti1-MP-mp-1907,0.38656574,Te2Ti1
Te2W1-MP-mp-1019322,1.1076795,
Te2W1-MP-mp-1023926,0.48618275,
Te2W1-MP-mp-1023942,0.5784922,
Te2W1-MP-mp-1025573,0.8789153,
Te2W1-MP-mp-1028586,1.2663562,
Te2W1-MP-mp-22693,0.041936122,Te2W1
Te3Tl5-MP-mp-174,4.2825966,Te3Tl5
Te3Tl5-MP-mp-1796,3.2449963,
Te3Zr1-MP-mp-2089,2.3589034,Te3Zr1
Te4Ti3-MP-mp-15669,0.03485538,Te4Ti3
Te4Ti5-MP-mp-7498,0.37491107,Te4Ti5
Th0.25Y0.75-MP-mp-1187829,0.3661292,
Th0.25Y0.75-MP-mp-981549,0.14851503,Th0.25Y0.75
Th0.25Zr0.75-MP-mp-1187462,2.9693935,
Th0.25Zr0.75-MP-mp-1217289,5.402339,Th0.25Zr0.75
Th0.25Zr0.75-MP-mp-1217345,2.9216833,
Th0.5Y0.5-MP-mp-1215891,0.77772224,
Th0.5Y0.5-MP-mp-1215899,0.11406326,Th0.5Y0.5
Th0.5Y0.5-MP-mp-1215923,0.7965253,
Th1Tl3-MP-mp-2061,0.9587594,Th1Tl3
Th2Zn1-MP-mp-2387,0.81536037,Th2Zn1
Ti0.5V0.5-MP-mp-1216646,5.9670773,Ti0.5V0.5
Ti0.5Zr0.5-MP-mp-1215200,1.6095074,Ti0.5Zr0.5
Ti0.5Zr0.5-MP-mp-1215236,1.3424907,
Ti0.66Zr0.33-MP-mp-1008568,1.1842582,Ti0.66Zr0.33
Ti0.66Zr0.33-MP-mp-1080389,2.55251,
Ti0.8V0.2-MP-mp-1217117,4.776966,Ti0.8V0.2
Ti1-MP-mp-1238818,4.6905417,
Ti1-MP-mp-1244924,0.41326046,
Ti1-MP-mp-1245006,0.37147415,
Ti1-MP-mp-1245164,0.44244385,
Ti1-MP-mp-1245170,0.39697266,
Ti1-MP-mp-1245320,0.41522002,
Ti1-MP-mp-46,4.431346,
Ti1-MP-mp-72,0.32131618,Ti1
Ti1O1-MP-mp-1071163,0.2922491,Ti1O1
Ti1O1-MP-mp-1203,2.4962554,
Ti1O1-MP-mp-1244926,2.849568,
Ti1O1-MP-mp-1244944,2.7233207,
Ti1O1-MP-mp-1245141,3.0114708,
Ti1O1-MP-mp-1245294,2.897036,
Ti1O1-MP-mp-1245324,2.7886105,
Ti1O1-MP-mp-2664,0.061049893,
Ti1O1-MP-mp-673667,1.6901572,
Ti1O1-MP-mp-685151,1.2541267,
Ti1O1-MP-mp-754333,2.573629,
Ti1O1-MP-mp-755264,1.8820933,
Ti1O1-MP-mp-755300,3.721491,
Ti1U2-MP-mp-1709,0.22402214,Ti1U2
Ti1Zn2-MP-mp-30882,0.15842211,Ti1Zn2
Ti2O3-MP-mp-1101295,0.9017439,
Ti2O3-MP-mp-1179268,8.687861,
Ti2O3-MP-mp-1188323,3.1339402,
Ti2O3-MP-mp-458,-0.4680413,Ti2O3
Ti2O3-MP-mp-776456,2.4341028,
Ti2O3-MP-mp-776655,2.825961,
Ti2O3-MP-mvc-379,4.8335643,
Tl1-MP-mp-1187790,5.6669683,
Tl1-MP-mp-82,1.7299044,
Tl1-MP-mp-972351,4.2499447,Tl1
Tl1-MP-mp-972373,4.983526,
Tl2O3-MP-mp-1216564,19.473335,
Tl2O3-MP-mp-1658,0.46271318,Tl2O3
Tl2O3-MP-mp-684956,25.16819,
Tl3Y1-MP-mp-2393,1.41968,Tl3Y1
Tm1-MP-mp-1018122,0.17170417,Tm1
Tm1-MP-mp-143,1.4211253,
Tm1-MP-mp-971769,2.3109922,
U1-MP-mp-1077335,1.6155685,
U1-MP-mp-1178958,1.3608491,
U1-MP-mp-1197206,2.2875693,
U1-MP-mp-1200324,1.5708051,
U1-MP-mp-43,4.760995,
U1-MP-mp-44,0.7570381,U1
U1-MP-mp-93,5.092743,
U1O2-MP-mp-1597,-0.10120253,U1O2
U1O2-MP-mp-865305,1.148134,
V1Zr3-MP-mp-1188058,2.5197954,V1Zr3
V2O3-MP-mp-1178852,4.7494507,
V2O3-MP-mp-1178873,5.2296786,
V2O3-MP-mp-1304076,3.9360058,
V2O3-MP-mp-18937,3.1594005,
V2O3-MP-mp-21579,-0.17451,V2O3
V2O3-MP-mp-552113,7.0494804,
V2O3-MP-mp-553955,4.304601,
V2O3-MP-mp-776630,3.1872945,
V2O3-MP-mp-776688,5.543226,
V2O3-MP-mp-777698,3.9459589,
V2O3-MP-mp-780654,0.81413215,
V2O3-MP-mvc-846,3.8121285,
V2Zr1-MP-mp-1103264,8.241904,V2Zr1
V2Zr1-MP-mp-258,4.822882,
V3Zr3O1-MP-mp-504834,6.989827,V3Zr3O1
W1-MP-mp-1065340,0.98119843,
W1-MP-mp-11334,0.060027122,W1
W1-MP-mp-1178801,1.0501575,
W1-MP-mp-1191581,1.2479091,
W1-MP-mp-1216274,1.0290002,
W1O2-MP-mp-1244880-synth_doped,0.7732952,
W1O2-MP-mp-1245020-synth_doped,0.5631347,
W1O2-MP-mp-1245077-synth_doped,1.5001445,
W1O2-MP-mp-1245102-synth_doped,0.22210407,
W1O2-MP-mp-1245227-synth_doped,0.6179266,
W1O2-MP-mp-1245271-synth_doped,0.6316849,
W1O2-MP-mp-25375,14.992315,
W1O2-MP-mp-504110,2.0956376,
W1O2-MP-mp-616585-synth_doped,-0.013904214,
W1O2-MP-mvc-10022,-0.16280398,
W1O2-MP-mvc-10363-synth_doped,3.1248925,
W1O2-MP-mvc-11221,4.2809677,
W1O2-MP-mvc-2118,-0.15582824,W1O2
W1O2-MP-mvc-5928-synth_doped,1.534562,
W1O2-MP-mvc-5965,1.299293,
W1O2-MP-mvc-6375,-0.94461876,
W1O2-MP-mvc-6389,6.554298,
W1O2-MP-mvc-7369,3.4016714,
W1O3-MP-mp-1172828,0.14213651,
W1O3-MP-mp-1178793,-0.07899609,
W1O3-MP-mp-1191364,0.95934105,
W1O3-MP-mp-1197857,0.25342357,
W1O3-MP-mp-1202223,0.552956,
W1O3-MP-mp-1203069,0.2417497,
W1O3-MP-mp-1244906,2.065001,
W1O3-MP-mp-1244929,3.1790285,
W1O3-MP-mp-1245182,3.9133415,
W1O3-MP-mp-1245267,4.1016397,
W1O3-MP-mp-1245268,3.06678,
W1O3-MP-mp-18773,0.47587895,
W1O3-MP-mp-19033,0.578076,
W1O3-MP-mp-19342,4.2295556,
W1O3-MP-mp-19390,4.218197,
W1O3-MP-mp-19443,-0.16326767,W1O3
W1O3-MP-mp-32662,1.4316039,
W1O3-MP-mp-32777,1.4966272,
W1O3-MP-mp-510417,0.025738,
W1O3-MP-mp-545665,1.5461901,
W1O3-MP-mp-553964,0.44623077,
W1O3-MP-mp-559122,0.42298394,
W1O3-MP-mp-566278,0.040476352,
W1O3-MP-mp-636148,0.28663915,
W1O3-MP-mp-636284,-0.000717402,
W1O3-MP-mp-675211,3.077797,
W1O3-MP-mp-705411,0.974612,
W1O3-MP-mp-715923,4.4650364,
W1O3-MP-mp-756478,0.97416306,
W1O3-MP-mvc-11457,2.4969735,
W1O3-MP-mvc-13988,2.9390855,
W1O3-MP-mvc-15643,0.55058724,
W1O3-MP-mvc-5096,0.95314455,
W2Zr1-MP-mp-1215171,2.439315,
W2Zr1-MP-mp-675,1.1263217,W2Zr1
W3O1-MP-mp-21369,3.478858,W3O1
Y1Zn1-MP-mp-179,0.23465773,
Y1Zn1-MP-mp-2516,0.5449838,Y1Zn1
Yb1-MP-mp-1187875,0.7876993,
Yb1-MP-mp-141,1.1915735,
Yb1-MP-mp-972364,-0.08396884,Yb1
Zn1-MP-mp-1187812,0.8791708,
Zn1-MP-mp-1244987,1.1306679,
Zn1-MP-mp-1245093,1.1662586,
Zn1-MP-mp-1245184,1.0906585,
Zn1-MP-mp-1245266,1.1224737,
Zn1-MP-mp-79,0.90874743,Zn1
Zn2Zr1-MP-mp-1401,0.5341666,Zn2Zr1
Zr1-MP-mp-1077723,1.552612,
Zr1-MP-mp-131,4.616533,Zr1