id,tc,pretty_formula
Ge3Ni1Y1-MP-mp-8467,1.7457204,Ge3Ni1Y1
Ge3Pd1Sr1-MP-mp-978987,1.6785325,Ge3Pd1Sr1
Ge3Pt1Sr1-MP-mp-1068239,1.5595546,Ge3Pt1Sr1
Ge3Rh5-MP-mp-624221,1.1269646,Ge3Rh5
Ge3Ti5-MP-mp-568151,-0.008773714,Ge3Ti5
Ge3U1-MP-mp-2607,0.8465454,Ge3U1
Ge3U5-MP-mp-622345,0.98682284,Ge3U5
Ge3Y1-MP-mp-29772,2.1600032,Ge3Y1
Ge3Zr5-MP-mp-17706,-0.019613571,Ge3Zr5
Ge4La3Pd4-MP-mp-22729,2.486233,Ge4La3Pd4
Ge4Ru3Yb2-MP-mp-642651,0.13331234,Ge4Ru3Yb2
Ge5La1-MP-mp-1025100,6.3371596,Ge5La1
Ge6Pt4Y3-MP-mp-570801,3.9276466,Ge6Pt4Y3
Ge7Ir3-MP-mp-505780,0.9466592,Ge7Ir3
H0.5V1-MP-mp-642644,-0.040578604,H0.5V1
H0.5V1-MP-mp-642659,2.725708,
H15Th4-MP-mp-24202,7.37166,H15Th4
H2Th1-MP-mp-1008734,9.444187,
H2Th1-MP-mp-24291,10.025978,H2Th1
H2Ti1-MP-mp-1077353,8.027253,
H2Ti1-MP-mp-1077482,-0.8366885,
H2Ti1-MP-mp-24161,-0.316065,H2Ti1
H2Ti1-MP-mp-24726,-0.052500963,
H2Zr1-MP-mp-24155,4.439112,
H2Zr1-MP-mp-24286,0.011912495,H2Zr1
H4Si1-MP-mp-23739,15.93136,H4Si1
Hf0.25Zr0.75-MP-mp-1184723,5.7760262,Hf0.25Zr0.75
Hf0.5Nb0.5-MP-mp-1224307,7.882526,Hf0.5Nb0.5
Hf0.5Ta0.5-MP-mp-1224292,5.59624,Hf0.5Ta0.5
Hf0.5V2Zr0.5-MP-mp-1224085,4.546315,Hf0.5V2Zr0.5
Hf0.8Mo0.2-MP-mp-1212251,2.8249545,Hf0.8Mo0.2
Hf1-MP-mp-1009460,0.2357869,
Hf1-MP-mp-103,0.20228425,Hf1
Hf1In1Pd2-MP-mp-1224492,1.3359783,
Hf1In1Pd2-MP-mp-864734,2.324911,Hf1In1Pd2
Hf1Mo2-MP-mp-1191083,5.6518974,
Hf1Mo2-MP-mp-1224345,2.9540691,
Hf1Mo2-MP-mp-2363,0.7697938,Hf1Mo2
Hf1N1-MP-mp-1001834,5.370413,
Hf1N1-MP-mp-1001916,6.4490204,
Hf1N1-MP-mp-1096994,1.6047763,
Hf1N1-MP-mp-2828,8.0611925,Hf1N1
Hf1Ni2Sn1-MP-mp-4828,0.24629943,Hf1Ni2Sn1
Hf1Os1-MP-mp-11452,0.039687872,Hf1Os1
Hf1Os1P1-MP-mp-1080463,5.3941636,Hf1Os1P1
Hf1Os1Si1-MP-mp-1079323,1.1599185,
Hf1Os1Si1-MP-mp-1189249,0.28348303,Hf1Os1Si1
Hf1Os2-MP-mp-570960,0.95347416,Hf1Os2
Hf1P1Ru1-MP-mp-15963,10.687275,Hf1P1Ru1
Hf1Re2-MP-mp-1689,4.760698,Hf1Re2
Hf1Rh1-MP-mp-11457,1.0047593,Hf1Rh1
Hf1Rh1Si1-MP-mp-13472,1.0180807,Hf1Rh1Si1
Hf1Rh3-MP-mp-1027,0.27797607,Hf1Rh3
Hf1Ru1-MP-mp-2802,0.06316465,Hf1Ru1
Hf1Ru1Si1-MP-mp-1078884,7.7817645,
Hf1Ru1Si1-MP-mp-1212161,5.6560364,Hf1Ru1Si1
Hf1Sb2-MP-mp-1018717,0.79748654,
Hf1Sb2-MP-mp-2180,0.11838481,Hf1Sb2
Hf1Si2-MP-mp-1069,0.16589269,Hf1Si2
Hf1Tc2-MP-mp-1095669,3.5394635,Hf1Tc2
Hf1V2-MP-mp-1043,4.0065484,
Hf1V2-MP-mp-1071274,3.9667861,
Hf1V2-MP-mp-1077017,8.6017685,Hf1V2
Hf1W2-MP-mp-1224230,1.7014279,
Hf1W2-MP-mp-1400,0.15408036,Hf1W2
Hf25Nb50Zr25-MP-mp-1224216,9.321011,Hf25Nb50Zr25
Hf2Ni1-MP-mp-861,0.8762779,Hf2Ni1
Hf2Rh1-MP-mp-1190626,1.751767,Hf2Rh1
Hf2Ru3Si4-MP-mp-31022,0.11008543,Hf2Ru3Si4
Hf2Si1-MP-mp-9938,0.06262538,Hf2Si1
Hf3Si2-MP-mp-2105,0.25642586,Hf3Si2
Hf5Re24-MP-mp-567490,4.280137,Hf5Re24
Hg0.5In0.5-MP-mp-20132,3.4116917,Hg0.5In0.5
Hg1-MP-mp-1077098,3.2655997,
Hg1-MP-mp-10861,3.8461573,
Hg1-MP-mp-1096992,3.6251059,
Hg1-MP-mp-1184554,3.605518,Hg1
Hg1-MP-mp-1184591,2.4255013,
Hg1-MP-mp-1184657,3.379878,
Hg1-MP-mp-1184687,3.353201,
Hg1-MP-mp-1184709,4.8892794,
Hg1-MP-mp-1184766,4.8848257,
Hg1-MP-mp-1224431,3.3707082,
Hg1-MP-mp-569360,4.4897184,
Hg1-MP-mp-864900,5.8260746,
Hg1-MP-mp-975272,3.554905,
Hg1K1-MP-mp-11462,0.17974527,Hg1K1
Hg1Li3-MP-mp-1185205,3.2733235,
Hg1Li3-MP-mp-1646,1.5307164,Hg1Li3
Hg1Li3-MP-mp-976047,3.409545,
Hg1Mg1-MP-mp-1408,1.1088855,Hg1Mg1
Hg1Mg3-MP-mp-1185784,0.3989602,Hg1Mg3
Hg1Mg3-MP-mp-569103,0.9968933,
Hg1Mg3-MP-mp-731,1.7622921,
Hg1Mg3-MP-mp-978282,0.75876665,
Hg1Na1-MP-mp-255,0.27555388,Hg1Na1
Hg1Pb2-MP-mp-1223969,5.00628,Hg1Pb2
Hg1S1-MP-mp-10764,0.42032078,
Hg1S1-MP-mp-1123,0.13955389,Hg1S1
Hg1S1-MP-mp-634,3.0497997,
Hg1S1-MP-mp-9252,3.0129263,
Hg1S1-MP-mp-973676,0.6817434,
Hg1Zr3-MP-mp-1630,0.12158398,Hg1Zr3
Hg2K1-MP-mp-30717,1.1467936,Hg2K1
Hg2Mg1-MP-mp-11464,1.7123053,
Hg2Mg1-MP-mp-1185876,1.4635093,
Hg2Mg1-MP-mp-1185877,3.013873,
Hg2Mg1-MP-mp-1185878,3.700585,Hg2Mg1
Hg2Mg1-MP-mp-1185886,0.025035612,
Hg2Na1-MP-mp-11466,1.5716665,Hg2Na1
Hg2Na3-MP-mp-17974,0.19994067,Hg2Na3
Hg2Na3-MP-mp-570560,0.45322847,
Hg2Os2O7-MP-mp-22089,0.12483096,Hg2Os2O7
Hg2Pt1-MP-mp-11470,0.29016194,Hg2Pt1
Hg3K1-MP-mp-1184994,2.187874,
Hg3K1-MP-mp-1185041,2.7872682,
Hg3K1-MP-mp-1185042,3.1585922,
Hg3K1-MP-mp-1185099,2.8451943,Hg3K1
Hg3Li1-MP-mp-1079267,1.8713416,Hg3Li1
Hg3Li1-MP-mp-1185337,1.6520168,
Hg3Li1-MP-mp-973824,1.6345825,
Hg3Li1-MP-mp-976599,1.925798,
Hg3Mg1-MP-mp-1185879,0.27698183,
Hg3Mg1-MP-mp-1185880,0.5331522,
Hg3Mg1-MP-mp-1185881,2.5043755,
Hg3Mg1-MP-mp-1185883,2.7555141,
Hg3Mg1-MP-mp-1205873,0.82079554,Hg3Mg1
Hg3Pt1-MP-mp-1184551,0.8039707,
Hg3Pt1-MP-mp-1184608,0.77443385,
Hg3Zr1-MP-mp-1188042,3.244835,
Hg3Zr1-MP-mp-1608,3.0681658,Hg3Zr1
Hg4Pt1-MP-mp-936,1.6849245,Hg4Pt1
Hg5Mn2-MP-mp-30720,0.17533955,Hg5Mn2
Hg7K5-MP-mp-30718,-0.20111945,Hg7K5
Ho1-MP-mp-10659,0.1373078,Ho1
Ho1-MP-mp-144,0.27327192,
Ho1-MP-mp-973986,0.35144728,
Ho1Ir1Si1-MP-mp-22222,0.21060303,Ho1Ir1Si1
Ho1P2Pd2-MP-mp-1207099,-0.3078859,Ho1P2Pd2
Ho1Pb1Pd2-MP-mp-1206634,0.16756146,Ho1Pb1Pd2
Ho1Pd2Sn1-MP-mp-30731,0.027849078,Ho1Pd2Sn1
Ho1Re2-MP-mp-1102328,0.31086752,Ho1Re2
Ho1Rh1Si1-MP-mp-20675,0.044359952,Ho1Rh1Si1
Ho1Te3-MP-mp-1025395,0.8736406,
Ho1Te3-MP-mp-1078508,0.2501537,Ho1Te3
Ho2Rh3Si5-MP-mp-1212337,0.20954122,Ho2Rh3Si5
Ho2Rh3Sn5-MP-mp-1188971,0.12788104,Ho2Rh3Sn5
Ho3Ni1-MP-mp-1189188,0.14729029,Ho3Ni1
Ho5Ir4Si10-MP-mp-1205124,0.2542319,Ho5Ir4Si10
I2-MP-mp-23153,1.2506117,I2
I4Sn1-MP-mp-23182,1.7943077,I4Sn1
I4Sn1-MP-mp-571436,1.4562125,
In0.25Sb0.75-MP-mp-975511,3.7008362,
In0.25Sb0.75-MP-mp-975512,3.7560546,In0.25Sb0.75
In0.25Tl0.75-MP-mp-1187638,0.6638726,
In0.25Tl0.75-MP-mp-1216558,3.759416,In0.25Tl0.75
In0.5Pb0.5-MP-mp-1184798,4.5056496,
In0.5Pb0.5-MP-mp-1223654,6.8681326,In0.5Pb0.5
In0.5Sn0.5Te1-MP-mp-1223695,0.67188144,In0.5Sn0.5Te1
In0.75Pb0.25-MP-mp-1184921,5.2009287,In0.75Pb0.25
In0.75Pb0.25-MP-mp-1184932,4.8163505,
In0.75Sn0.25-MP-mp-1184894,1.2329159,In0.75Sn0.25
In0.75Sn0.25-MP-mp-1224025,1.8389118,
In0.75Tl0.25-MP-mp-1187742,0.90867853,
In0.75Tl0.25-MP-mp-1187827,1.6408215,
In0.75Tl0.25-MP-mp-1216611,0.42014635,In0.75Tl0.25
In1-MP-mp-1184502,3.7712934,In1
In1-MP-mp-1184511,1.7412975,
In1-MP-mp-1184693,-1.1738064,
In1-MP-mp-973111,1.4034657,
In1.5La1Sn1.5-MP-mp-1225978,1.2716528,In1.5La1Sn1.5
In1.5Pb1.5Y1-MP-mp-1216252,0.809487,In1.5Pb1.5Y1
In1.5Sn1.5Th1-MP-mp-1217463,1.2394348,In1.5Sn1.5Th1
In1K2Mo15Se19-MP-mp-1226012,2.28937,In1K2Mo15Se19
In1La3-MP-mp-20909,3.870876,In1La3
In1Mg2-MP-mp-1185798,0.64613235,
In1Mg2-MP-mp-31326,0.7963376,In1Mg2
In1Mo3Te3-MP-mp-22061,0.18718866,In1Mo3Te3
In1N1-MP-mp-20411,2.7791142,
In1N1-MP-mp-20812,0.3856723,
In1N1-MP-mp-22205,1.8995953,In1N1
In1Nb3-MP-mp-1220719,4.0052724,
In1Nb3-MP-mp-22060,4.65082,In1Nb3
In1Ni2Ti1-MP-mp-1216917,0.23080656,
In1Ni2Ti1-MP-mp-22463,0.21162532,In1Ni2Ti1
In1Pd1-MP-mp-21215,0.6415243,In1Pd1
In1Pd2Y1-MP-mp-568880,1.8562226,In1Pd2Y1
In1Pd2Zr1-MP-mp-1215354,1.6984508,
In1Pd2Zr1-MP-mp-977475,2.5540974,In1Pd2Zr1
In1Pr3-MP-mp-1186754,0.43767527,
In1Pr3-MP-mp-19764,0.8758548,In1Pr3
In1Pt2Y1-MP-mp-510441,1.6910523,In1Pt2Y1
In1Rh1-MP-mp-899,2.2500217,In1Rh1
In1S8V6-MP-mp-1216503,3.210712,In1S8V6
In1Sb1-MP-mp-1007661,1.6532943,
In1Sb1-MP-mp-10148,2.7721496,
In1Sb1-MP-mp-10149,2.4349568,
In1Sb1-MP-mp-1223633,3.6710641,
In1Sb1-MP-mp-1223637,2.7543595,
In1Sb1-MP-mp-19744,4.1704082,
In1Sb1-MP-mp-20012,2.8230338,In1Sb1
In1Sb1-MP-mp-20253,3.9362862,
In1Sb1-MP-mp-21210,1.7207279,
In1Sb1-MP-mp-569020,3.6983936,
In1Sb1-MP-mp-684597,2.4619277,
In1Sc2-MP-mp-31348,0.265919,In1Sc2
In1Sc3-MP-mp-19713,0.2053558,In1Sc3
In1Sc3-MP-mp-570428,0.42136216,
In1Te1-MP-mp-20320,0.059286535,
In1Te1-MP-mp-2597,1.9831562,In1Te1
In1Te1-MP-mp-2819,3.128263,
In1Th2-MP-mp-21428,2.2330973,In1Th2
In1Zr3-MP-mp-20695,0.18594365,In1Zr3
In2Mo15Se19-MP-mp-1199774,2.5502176,In2Mo15Se19
In2Mo6Se6-MP-mp-1104518,1.7954524,
In2Mo6Se6-MP-mp-20152,0.83029103,In2Mo6Se6
In2O3-MP-mp-1105681,6.804835,
In2O3-MP-mp-1105699,3.163598,
In2O3-MP-mp-1194571,8.61229,
In2O3-MP-mp-1244879,9.196629,
In2O3-MP-mp-1245022,10.239029,
In2O3-MP-mp-1245202,9.523657,
In2O3-MP-mp-22323,7.355816,
In2O3-MP-mp-22598,7.513193,In2O3
In2O3-MP-mp-644741,2.3194788,
In2Te3-MP-mp-1068510,0.23694038,In2Te3
In2Te3-MP-mp-1105025,0.6485273,
In2Te3-MP-mp-1224450,0.67308307,
In2Te3-MP-mp-622511,2.6777792,
In3La1-MP-mp-20729,2.240592,In3La1
In3Lu1-MP-mp-977,0.40592825,In3Lu1
In3Mo15Se19-MP-mp-1228853,3.3528166,In3Mo15Se19
In3Rh1-MP-mp-18614,0.11552104,In3Rh1
In3Ru1-MP-mp-607450,2.4746275,In3Ru1
In3Ru1-MP-mp-672326,2.3299804,
In3Te4-MP-mp-541885,0.87044454,
In3Th1-MP-mp-20206,3.160619,In3Th1
In3U1-MP-mp-20941,1.6059828,In3U1
In3Y1-MP-mp-20131,0.8395089,In3Y1
In3Yb1-MP-mp-20469,0.08554223,In3Yb1
Ir0.5Os0.5-MP-mp-1223655,1.8683193,Ir0.5Os0.5
Ir0.5Te0.5-MP-mp-10187,1.5338044,Ir0.5Te0.5
Ir0.75Mo0.25-MP-mp-11482,-0.13423362,Ir0.75Mo0.25
Ir0.75Os0.25-MP-mp-1184761,0.48962155,Ir0.75Os0.25
Ir0.75Rh0.25-MP-mp-1184771,0.37002015,
Ir0.75Rh0.25-MP-mp-863709,0.24178609,Ir0.75Rh0.25
Ir1-MP-mp-1060567,0.9027043,Ir1
Ir1La1P1-MP-mp-12919,4.7826996,Ir1La1P1
Ir1La1Si1-MP-mp-3555,4.160879,Ir1La1Si1
Ir1La1Si3-MP-mp-2914,1.6051998,Ir1La1Si3
Ir1La3-MP-mp-1188506,3.4549038,
Ir1Lu1-MP-mp-1529,0.24501055,Ir1Lu1
Ir1Lu3-MP-mp-1189562,0.19746512,Ir1Lu3
Ir1Mo1-MP-mp-11481,4.828183,Ir1Mo1
Ir1Mo1-MP-mp-1221414,5.5782685,
Ir1Mo3-MP-mp-1120,7.8349676,Ir1Mo3
Ir1Nb1-MP-mp-1095683,1.3759577,
Ir1Nb1-MP-mp-1359,7.1466074,Ir1Nb1
Ir1Nb1Si1-MP-mp-21248,-0.1284684,Ir1Nb1Si1
Ir1Nb3-MP-mp-1458,1.5952379,Ir1Nb3
Ir1Nd1Si1-MP-mp-1102140,0.08143959,Ir1Nd1Si1
Ir1Os1Th1-MP-mp-1217331,3.7948668,Ir1Os1Th1
Ir1P1Sc1-MP-mp-1080665,2.8314042,Ir1P1Sc1
Ir1Sb1-MP-mp-10125,0.23554078,Ir1Sb1
Ir1Sc1-MP-mp-1129,0.2026654,Ir1Sc1
Ir1Se2-MP-mp-1361,0.3818297,Ir1Se2
Ir1Si1-MP-mp-1128,0.19979718,Ir1Si1
Ir1Si1Ta1-MP-mp-21316,0.5997346,Ir1Si1Ta1
Ir1Si1Tb1-MP-mp-20383,0.50860405,Ir1Si1Tb1
Ir1Si1Th1-MP-mp-1206779,6.3633604,Ir1Si1Th1
Ir1Si1Th1-MP-mp-1217333,6.060842,
Ir1Si1Ti1-MP-mp-1103248,1.70766,Ir1Si1Ti1
Ir1Si1Y1-MP-mp-1102268,2.782672,Ir1Si1Y1
Ir1Si1Zr1-MP-mp-1102869,1.9370178,Ir1Si1Zr1
Ir1Si3-MP-mp-29663,1.1058358,
Ir1Si3-MP-mp-569802,0.18785354,Ir1Si3
Ir1Sn2-MP-mp-2083,0.8451296,Ir1Sn2
Ir1Sn4-MP-mp-1080586,1.1496755,
Ir1Sn4-MP-mp-31277,0.85657144,Ir1Sn4
Ir1Te2-MP-mp-10844,0.8124689,
Ir1Te2-MP-mp-10845,1.196993,
Ir1Te2-MP-mp-1103512,1.517247,
Ir1Te2-MP-mp-1551,1.799239,
Ir1Te2-MP-mp-2285,1.9426625,
Ir1Te2-MP-mp-569322,1.5802603,
Ir1Te2-MP-mp-569388,0.38220847,Ir1Te2
Ir1Th1-MP-mp-12774,0.5474534,Ir1Th1
Ir1Ti3-MP-mp-544,5.0285463,Ir1Ti3
Ir1U1-MP-mp-1105762,0.11002889,Ir1U1
Ir1U1-MP-mp-2236,0.12134974,
Ir1U1-MP-mp-644899,0.070791766,
Ir1V1-MP-mp-1079131,-0.7194578,
Ir1V1-MP-mp-1079582,-0.008909382,
Ir1V1-MP-mp-1178808,0.8446381,
Ir1V1-MP-mp-1204410,0.7218331,
Ir1V1-MP-mp-1281,0.8765478,
Ir1V1-MP-mp-569250,0.17622896,Ir1V1
Ir1V1-MP-mp-982070,-0.82336473,
Ir1V3-MP-mp-2006,-0.000510961,Ir1V3
Ir1Y4-MP-mp-1207779,0.78032875,
Ir1Zr2-MP-mp-1077297,3.4205732,Ir1Zr2
Ir1Zr2-MP-mp-1191706,2.8825064,
Ir1Zr3-MP-mp-30748,4.2529383,Ir1Zr3
Ir2La1-MP-mp-1463,0.6246536,Ir2La1
Ir2La1Si2-MP-mp-10152,2.0647588,
Ir2La1Si2-MP-mp-3585,1.1857611,Ir2La1Si2
Ir2Lu1-MP-mp-1761,2.8185833,Ir2Lu1
Ir2P1-MP-mp-2082,0.22223578,Ir2P1
Ir2Sc1-MP-mp-2263,1.4652407,Ir2Sc1
Ir2Si2Th1-MP-mp-1068246,3.8258362,
Ir2Si2Th1-MP-mp-1080037,2.6077366,Ir2Si2Th1
Ir2Si2U1-MP-mp-20260,0.88035977,
Ir2Si2U1-MP-mp-22758,1.145462,Ir2Si2U1
Ir2Si2Y1-MP-mp-1068635,2.2719545,
Ir2Si2Y1-MP-mp-3896,1.737824,
Ir2Si2Y1-MP-mp-4653,2.0792196,Ir2Si2Y1
Ir2Sr1-MP-mp-318,5.6434803,Ir2Sr1
Ir2Th1-MP-mp-1187,6.4810343,Ir2Th1
Ir2U1-MP-mp-1655,-0.32832682,Ir2U1
Ir2Y1-MP-mp-2762,1.8171164,Ir2Y1
Ir2Y3-MP-mp-1204272,2.228094,Ir2Y3
Ir2Yb1-MP-mp-1584,0.2856814,Ir2Yb1
Ir2Zr1-MP-mp-715,3.890451,Ir2Zr1
Ir3Lu2Si5-MP-mp-568336,4.3545685,Ir3Lu2Si5
Ir3Nb1-MP-mp-1186231,0.07625894,Ir3Nb1
Ir3Nb1-MP-mp-1339,1.246422,
Ir3Sc1-MP-mp-12593,0.29954427,Ir3Sc1
Ir3Si5Tb2-MP-mp-1187284,-0.73381555,Ir3Si5Tb2
Ir3Si5Y2-MP-mp-1189012,2.5567198,Ir3Si5Y2
Ir3Te8-MP-mp-1217357,1.3714797,Ir3Te8
Ir3Te8-MP-mp-32682,0.595155,
Ir3Th7-MP-mp-571094,1.4260983,Ir3Th7
Ir3U1-MP-mp-1044,0.23335637,Ir3U1
Ir3V1-MP-mp-1082,-0.09096575,
Ir3V1-MP-mp-865496,0.293046,Ir3V1
Ir3Y1-MP-mp-1095497,2.160839,Ir3Y1
Ir3Zr5-MP-mp-1188697,3.348926,
Ir3Zr5-MP-mp-30749,0.08928931,Ir3Zr5
Ir4La3Sn13-MP-mp-1197480,2.420321,Ir4La3Sn13
Ir4Lu2.5Sc2.5Si10-MP-mp-1222705,7.9184675,Ir4Lu2.5Sc2.5Si10
Ir4Lu5Si10-MP-mp-542170,4.1161747,Ir4Lu5Si10
Ir4Sc5Si10-MP-mp-1195748,8.84744,Ir4Sc5Si10
Ir4Si10Tm5-MP-mp-1202399,1.0772717,Ir4Si10Tm5
Ir4Si10Y5-MP-mp-1202645,3.1241217,Ir4Si10Y5
Ir4Si10Yb5-MP-mp-1207588,0.016706675,Ir4Si10Yb5
Ir4Sn13Sr3-MP-mp-1196422,4.429251,Ir4Sn13Sr3
Ir5La1-MP-mp-1384,2.0637355,Ir5La1
Ir5Th1-MP-mp-312,2.7056422,Ir5Th1
K0.3Mo1O3-MP-mp-541614,0.4671831,K0.3Mo1O3
K0.3Mo1O3-MP-mp-698648,1.7311299,
K0.45W1O3-MP-mp-757677-synth_doped,0.7595537,
K0.45W1O3-MP-mp-761779-synth_doped,0.5916259,K0.45W1O3
K1-MP-mp-1068966,0.680248,
K1-MP-mp-1078640,1.8315976,
K1-MP-mp-1080043,1.5052891,
K1-MP-mp-1180961,0.19231185,
K1-MP-mp-1180991,1.1803827,
K1-MP-mp-1184755,-0.6706009,
K1-MP-mp-1184764,1.4090111,
K1-MP-mp-1184804,0.7678676,
K1-MP-mp-1184808,1.3960592,
K1-MP-mp-1184905,3.02014,
K1-MP-mp-1185201,3.9008446,
K1-MP-mp-1199937,7.5585856,
K1-MP-mp-573691,0.5424752,
K1-MP-mp-604318,-0.82094204,
K1-MP-mp-604325,0.300817,
K1-MP-mp-972981,-0.71940726,
K1La1Nb2O7-MP-mp-1223501,0.024704963,K1La1Nb2O7
K1Na2-MP-mp-570786,1.6300845,
K1Ni2S2-MP-mp-558518,0.28496534,
K1Ni2Se2-MP-mp-568747,2.2283216,
K1Os2O6-MP-mp-4788,3.922553,
K1Os2O6-MP-mp-554461,8.90147,K1Os2O6
K1Os2O6-MP-mp-675028,3.9613006,
K1S8V6-MP-mp-1224064,0.76241374,K1S8V6
K1Sb1-MP-mp-1536,-0.04973326,K1Sb1
K2Mo15Se19-MP-mp-1204618,1.8623682,K2Mo15Se19
K2Mo6Se6-MP-mp-1104242,0.14533938,K2Mo6Se6
K2Te3-MP-mp-7289,-0.14916801,K2Te3
La0.1Sr0.9Ti1O3-MP-mp-695042,-0.51531225,La0.1Sr0.9Ti1O3
La1-MP-mp-26,5.010039,La1
La1Mg1-MP-mp-1094164,1.2724106,
La1Mg1-MP-mp-1094166,-0.47065166,
La1Mg1-MP-mp-1094173,0.48624805,
La1Mg1-MP-mp-1094182,-0.67906594,
La1Mg1-MP-mp-1094216,-0.23592097,
La1Mg1-MP-mp-1094739,0.14582397,
La1Mg1-MP-mp-1104,0.21865508,La1Mg1
La1Mg2-MP-mp-1094161,-0.120471835,
La1Mg2-MP-mp-1094163,-0.33329973,
La1Mg2-MP-mp-1094168,-0.959152,
La1Mg2-MP-mp-1094176,-0.8933755,
La1Mg2-MP-mp-1094179,-0.45786864,
La1Mg2-MP-mp-1094187,-1.2945191,
La1Mg2-MP-mp-1095697,-1.0850153,
La1Mg2-MP-mp-1909,-0.50036466,La1Mg2
La1Mo6S8-MP-mp-1103974,6.6563196,La1Mo6S8
La1Mo6Se8-MP-mp-37784,10.228618,La1Mo6Se8
La1N1-MP-mp-1018049,2.7329164,
La1N1-MP-mp-13132,3.037701,
La1N1-MP-mp-256,2.5368655,
La1N1-MP-mp-567290,1.070175,La1N1
La1Ni1O3-MP-mp-1075921,0.78916836,
La1Ni1O3-MP-mp-19339,-0.2562973,La1Ni1O3
La1Ni1P1O1-MP-mp-1079685,2.4858549,La1Ni1P1O1
La1Ni1Sb2-MP-mp-1079572,0.9978912,La1Ni1Sb2
La1Ni1Si1-MP-mp-7030,1.283813,La1Ni1Si1
La1Ni1Sn1-MP-mp-12613,0.8408075,La1Ni1Sn1
La1Ni2P2-MP-mp-8250,2.2308998,La1Ni2P2
La1Ni2Si2-MP-mp-5898,0.26162547,La1Ni2Si2
La1Os2-MP-mp-1102043,6.720296,La1Os2
La1Os2-MP-mp-1768,3.2498918,
La1Os4P12-MP-mp-1021506,1.094493,La1Os4P12
La1Os4Sb12-MP-mp-1106066,1.173472,La1Os4Sb12
La1P1-MP-mp-2384,0.10892326,La1P1
La1P12Ru4-MP-mp-15727,2.2735033,La1P12Ru4
La1P1Rh1-MP-mp-1070925,2.4208047,La1P1Rh1
La1P2Pd2-MP-mp-1207202,0.95049495,La1P2Pd2
La1P2Ru2-MP-mp-9886,3.631095,La1P2Ru2
La1Pb1.5Sn1.5-MP-mp-1223431,1.499758,La1Pb1.5Sn1.5
La1Pb1.5Tl1.5-MP-mp-1223251,1.8487517,La1Pb1.5Tl1.5
La1Pb3-MP-mp-21432,3.9481719,La1Pb3
La1Pd1Sb2-MP-mp-1078519,2.366967,La1Pd1Sb2
La1Pd2Sb2-MP-mp-1079540,1.4292653,La1Pd2Sb2
La1Pd2Si2-MP-mp-4954,0.31510782,La1Pd2Si2
La1Pd3-MP-mp-674,0.29567373,La1Pd3
La1Pt1Si1-MP-mp-1206485,1.9684757,La1Pt1Si1
La1Pt2-MP-mp-912,0.39367205,La1Pt2
La1Pt2Si2-MP-mp-1080606,1.3289578,La1Pt2Si2
La1Pt2Si2-MP-mp-1223224,2.4572296,
La1Pt2Si2-MP-mp-4176,0.8661908,
La1Pt3Si1-MP-mp-1206882,0.43078423,La1Pt3Si1
La1Pt5-MP-mp-1832,0.10407296,La1Pt5
La1Rh1O3-MP-mp-5163,-0.49727017,La1Rh1O3
La1Rh1Sb1-MP-mp-1211458,1.9539535,La1Rh1Sb1
La1Rh1Si1-MP-mp-1103155,4.0798683,La1Rh1Si1
La1Rh1Si3-MP-mp-1070124,1.864858,La1Rh1Si3
La1Rh1Sn1-MP-mp-12378,1.8698137,La1Rh1Sn1
La1Rh2-MP-mp-1702,0.24028303,La1Rh2
La1Rh2Si2-MP-mp-5936,1.5426438,La1Rh2Si2
La1Rh3-MP-mp-1065783,-0.21642321,
La1Rh3-MP-mp-569100,1.0401483,
La1Rh3-MP-mp-974030,1.8253446,La1Rh3
La1Ru2-MP-mp-2019,3.7393203,La1Ru2
La1Ru2Si2-MP-mp-5105,3.608144,La1Ru2Si2
La1Ru3Si2-MP-mp-29240,6.9107256,La1Ru3Si2
La1Ru3Si2-MP-mp-569482,7.0310555,
La1Ru4Sb12-MP-mp-1188603,2.8647604,La1Ru4Sb12
La1S1-MP-mp-1008998,-0.73669136,
La1S1-MP-mp-1068462,0.4954762,
La1S1-MP-mp-20215,-0.5183732,
La1S1-MP-mp-2350,1.0144585,La1S1
La1S1-MP-mp-557579,-0.75037956,
La1Sb1-MP-mp-10177,1.0827693,
La1Sb1-MP-mp-1065,0.9034598,La1Sb1
La1Sb2-MP-mp-1101942,0.8986646,La1Sb2
La1Se1-MP-mp-1008999,-0.32081977,
La1Se1-MP-mp-1065583,0.40758786,
La1Se1-MP-mp-1161,1.1422257,La1Se1
La1Se1-MP-mp-642890,0.4007812,
La1Si10-MP-mp-1190852,6.2222896,La1Si10
La1Si2-MP-mp-2062,1.6239154,La1Si2
La1Sn1.5Tl1.5-MP-mp-1223249,1.6659876,La1Sn1.5Tl1.5
La1Sn2-MP-mp-1077735,3.2326064,La1Sn2
La1Sn3-MP-mp-633,5.679405,La1Sn3
La1Te1-MP-mp-1009008,1.235338,
La1Te1-MP-mp-1560,1.3790793,La1Te1
La1Tl3-MP-mp-2001,1.4731011,La1Tl3
La1Zn1-MP-mp-2615,1.2127616,La1Zn1
La2Mg1-MP-mp-1094170,0.6113965,
La2Mg1-MP-mp-1094177,0.108667985,La2Mg1
La2Mg1-MP-mp-1094190,0.5312573,
La2Mg1-MP-mp-1094195,1.3626254,
La2Mg1-MP-mp-1094201,2.3106108,
La2Mg1-MP-mp-1094203,2.2589614,
La2Ni1O4-MP-mp-21326,2.7472596,
La2Ni1O4-MP-mp-21874,-0.7031073,La2Ni1O4
La2Ni1O4-MP-mp-690517,-0.3060874,
La2O4-MP-mp-1206559,12.263451,
La2Rh3Si5-MP-mp-8620,3.9982986,La2Rh3Si5
La2Rh3Sn5-MP-mp-30755,1.7725203,La2Rh3Sn5
La2S3-MP-mp-32906,2.5483055,
La2S3-MP-mp-7475,0.22182137,La2S3
La2Sb1-MP-mp-759,1.1227344,La2Sb1
La2Se3-MP-mp-32798,0.4388623,La2Se3
La2Sn5-MP-mp-1105069,-0.20821166,
La2Sn5-MP-mp-1182656,1.7901044,
La3Ni1-MP-mp-1189497,4.2873697,
La3Ni4P4O2-MP-mp-1210896,2.0595107,La3Ni4P4O2
La3Ni4Si4-MP-mp-568370,1.7768562,
La3Pb13Rh4-MP-mp-1203228,2.174559,La3Pb13Rh4
La3Pd4Si4-MP-mp-568625,2.0895174,La3Pd4Si4
La3Pd5Si1-MP-mp-571217,1.7723823,La3Pd5Si1
La3Rh4Sn13-MP-mp-30513,1.7637699,
La3Rh4Sn13-MP-mp-640274,3.113273,La3Rh4Sn13
La3Ru1-MP-mp-1185165,5.217501,
La3Ru1-MP-mp-1189592,2.0862544,
La3Ru4Sn13-MP-mp-1196992,2.7255964,La3Ru4Sn13
La3S4-MP-mp-567,4.292287,
La3Sb3Y1-MP-mp-1223124,0.34790576,La3Sb3Y1
La3Se4-MP-mp-491,3.5468307,
La3Sn1-MP-mp-1681,3.867809,La3Sn1
La3Sn7-MP-mp-1079273,0.3540064,La3Sn7
La3Te4-MP-mp-879,3.7751544,La3Te4
La3Tl1-MP-mp-1185103,7.225911,
La3Tl1-MP-mp-371,7.8183637,La3Tl1
La4Pb1Sb2-MP-mp-1223115,-0.0812445,La4Pb1Sb2
La4Sb2Sn1-MP-mp-1223181,0.14224643,La4Sb2Sn1
La4Sb3-MP-mp-1223,0.56576836,La4Sb3
La5Ru2-MP-mp-1104417,1.7579565,La5Ru2
La5Si3-MP-mp-10961,1.0640423,La5Si3
La5Si3-MP-mp-1189366,1.0187386,
La5Sn3-MP-mp-1105908,1.6306522,
La5Sn3-MP-mp-510494,2.1102285,La5Sn3
La6Sb15Zn1-MP-mp-1223161,1.1040735,La6Sb15Zn1
La7Ni3-MP-mp-573855,3.8721364,La7Ni3
La7Pd3-MP-mp-1105925,1.3211737,La7Pd3
La7Rh3-MP-mp-1189031,3.3709059,La7Rh3
La7Ru3-MP-mp-1202486,1.1726288,La7Ru3
Li1.2Ti1.8O4-MP-mp-685797,1.3263681,
Li1.2Ti1.8O4-MP-mp-768114,3.3794713,
Li1Nb1O2-MP-mp-3924,0.013820559,Li1Nb1O2
Li1Pb1-MP-mp-2314,6.5773516,Li1Pb1
Li1Ti2O4-MP-mp-1104112,2.7614796,
Li1Ti2O4-MP-mp-1185486,2.4780543,
Li1Ti2O4-MP-mp-1192813,2.4300165,
Li1Ti2O4-MP-mp-1193296,1.2756101,
Li1Ti2O4-MP-mp-5670,11.039623,Li1Ti2O4
Li1Ti2O4-MP-mp-675334,0.5254919,
Li1Ti2O4-MP-mp-675692,0.6541438,
Li1Ti2O4-MP-mp-752942,7.0223722,
Li1Ti2O4-MP-mp-760378,1.688995,
Li1Ti2O4-MP-mp-760594,6.6823196,
Li1Ti2O4-MP-mp-760832-synth_doped,2.4678977,
Li1Ti2O4-MP-mp-776170,3.2628126,
Li1Ti2O4-MP-mp-780233,3.2371912,
Li1Ti2O4-MP-mp-977334,2.1333125,
Li1Ti2O4-MP-mvc-16724,6.051075,
Li1V2O4-MP-mp-19394,4.8307805,Li1V2O4
Li1V2O4-MP-mp-752548,4.2532587,
Li1V2O4-MP-mp-755052,8.377511,
Li1Zn1-MP-mp-1934,0.22363809,Li1Zn1
Li2Mo15Se19-MP-mp-1197196,2.9683042,Li2Mo15Se19
Li2Mo6Se6-MP-mp-1103933,0.23304158,Li2Mo6Se6
Li3Mo15Se19-MP-mp-1223482,2.911139,Li3Mo15Se19
Lu1Mo6S8-MP-mp-1104347,2.42202,Lu1Mo6S8
Lu1Os2-MP-mp-567590,3.644637,Lu1Os2
Lu1Pb1Pd2-MP-mp-1206796,2.3047009,Lu1Pb1Pd2
Lu1Pd2Si2-MP-mp-3507,0.93676203,Lu1Pd2Si2
Lu1Pd2Sn1-MP-mp-5181,1.884048,Lu1Pd2Sn1
Lu1Pt2Si2-MP-mp-1222307,1.7264843,